TITLE = "2 species of PNP-Steric with high order term" 
VARIABLES = "X" "Conc1" "Conc2" "phi" "Current_x""I_ext" "I_PNP" "CURRENT" "ENERGY" "
ZONE T="0.001", I=101
-1 2.245423e-01 2.244479e-01 -9.984107e-05 8.196323e-03 0 3.801033e-02 1.560968e-07 1.179238e+01 
-9.995066e-01 2.550873e-01 2.549998e-01 -9.984095e-05 -1.463059e-03 0 2.196560e-02 1.560968e-07 1.179238e+01 
-9.980267e-01 3.396228e-01 3.395502e-01 -9.983733e-05 2.338747e-03 0 2.242971e-02 1.560968e-07 1.179238e+01 
-9.955620e-01 4.632450e-01 4.631946e-01 -9.983669e-05 -5.792494e-04 0 8.982403e-03 1.560968e-07 1.179238e+01 
-9.921147e-01 6.117722e-01 6.117344e-01 -9.983146e-05 2.197300e-03 0 1.243690e-02 1.560968e-07 1.179238e+01 
-9.876883e-01 7.756374e-01 7.756206e-01 -9.983185e-05 -5.938565e-04 0 -5.624272e-04 1.560968e-07 1.179238e+01 
-9.822873e-01 9.478416e-01 9.478221e-01 -9.982709e-05 1.037161e-03 0 7.771390e-03 1.560968e-07 1.179238e+01 
-9.759168e-01 1.124458e+00 1.124459e+00 -9.982921e-05 -4.030635e-04 0 -4.576100e-03 1.560968e-07 1.179238e+01 
-9.685832e-01 1.301608e+00 1.301595e+00 -9.982519e-05 8.639873e-04 0 7.318525e-03 1.560968e-07 1.179238e+01 
-9.602937e-01 1.477329e+00 1.477339e+00 -9.982862e-05 -6.866095e-04 0 -7.083804e-03 1.560968e-07 1.179238e+01 
-9.510565e-01 1.648756e+00 1.648741e+00 -9.982477e-05 8.951205e-04 0 8.216456e-03 1.560968e-07 1.179238e+01 
-9.408808e-01 1.814636e+00 1.814653e+00 -9.982897e-05 -8.929184e-04 0 -8.678254e-03 1.560968e-07 1.179238e+01 
-9.297765e-01 1.972515e+00 1.972496e+00 -9.982473e-05 9.743604e-04 0 9.267680e-03 1.560968e-07 1.179238e+01 
-9.177546e-01 2.121542e+00 2.121565e+00 -9.982961e-05 -1.010225e-03 0 -9.681541e-03 1.560968e-07 1.179238e+01 
-9.048271e-01 2.259621e+00 2.259594e+00 -9.982461e-05 1.052885e-03 0 9.977037e-03 1.560968e-07 1.179238e+01 
-8.910065e-01 2.386325e+00 2.386356e+00 -9.983041e-05 -1.074076e-03 0 -1.011483e-02 1.560968e-07 1.179238e+01 
-8.763067e-01 2.500051e+00 2.500016e+00 -9.982424e-05 1.075420e-03 0 1.005866e-02 1.560968e-07 1.179238e+01 
-8.607420e-01 2.600932e+00 2.600971e+00 -9.983142e-05 -1.042979e-03 0 -9.784613e-03 1.560968e-07 1.179238e+01 
-8.443279e-01 2.688026e+00 2.687982e+00 -9.982358e-05 9.803513e-04 0 9.284670e-03 1.560968e-07 1.179238e+01 
-8.270806e-01 2.762154e+00 2.762201e+00 -9.983262e-05 -8.969682e-04 0 -8.596719e-03 1.560968e-07 1.179238e+01 
-8.090170e-01 2.823131e+00 2.823080e+00 -9.982279e-05 8.093918e-04 0 7.789406e-03 1.560968e-07 1.179238e+01 
-7.901550e-01 2.872479e+00 2.872532e+00 -9.983380e-05 -7.303314e-04 0 -6.941250e-03 1.560968e-07 1.179238e+01 
-7.705132e-01 2.910690e+00 2.910635e+00 -9.982208e-05 6.673387e-04 0 6.123415e-03 1.560968e-07 1.179238e+01 
-7.501111e-01 2.939809e+00 2.939866e+00 -9.983480e-05 -6.213833e-04 0 -5.380597e-03 1.560968e-07 1.179238e+01 
-7.289686e-01 2.960706e+00 2.960650e+00 -9.982154e-05 5.894931e-04 0 4.737434e-03 1.560968e-07 1.179238e+01 
-7.071068e-01 2.975583e+00 2.975640e+00 -9.983562e-05 -5.668166e-04 0 -4.194136e-03 1.560968e-07 1.179238e+01 
-6.845471e-01 2.985265e+00 2.985208e+00 -9.982110e-05 5.487371e-04 0 3.743473e-03 1.560968e-07 1.179238e+01 
-6.613119e-01 2.991713e+00 2.991770e+00 -9.983635e-05 -5.316052e-04 0 -3.367708e-03 1.560968e-07 1.179238e+01 
-6.374240e-01 2.995368e+00 2.995311e+00 -9.982070e-05 5.132172e-04 0 3.052647e-03 1.560968e-07 1.179238e+01 
-6.129071e-01 2.997731e+00 2.997788e+00 -9.983704e-05 -4.926245e-04 0 -2.781872e-03 1.560968e-07 1.179238e+01 
-5.877853e-01 2.998768e+00 2.998711e+00 -9.982029e-05 4.697915e-04 0 2.545824e-03 1.560968e-07 1.179238e+01 
-5.620834e-01 2.999548e+00 2.999605e+00 -9.983772e-05 -4.451081e-04 0 -2.334192e-03 1.560968e-07 1.179238e+01 
-5.358268e-01 2.999684e+00 2.999627e+00 -9.981988e-05 4.192093e-04 0 2.142704e-03 1.560968e-07 1.179238e+01 
-5.090414e-01 2.999984e+00 3.000041e+00 -9.983837e-05 -3.926864e-04 0 -1.965805e-03 1.560968e-07 1.179238e+01 
-4.817537e-01 2.999879e+00 2.999822e+00 -9.981948e-05 3.659836e-04 0 1.802044e-03 1.560968e-07 1.179238e+01 
-4.539905e-01 3.000066e+00 3.000123e+00 -9.983897e-05 -3.394233e-04 0 -1.648143e-03 1.560968e-07 1.179238e+01 
-4.257793e-01 2.999911e+00 2.999854e+00 -9.981910e-05 3.132188e-04 0 1.503854e-03 1.560968e-07 1.179238e+01 
-3.971479e-01 3.000078e+00 3.000136e+00 -9.983952e-05 -2.875151e-04 0 -1.366976e-03 1.560968e-07 1.179238e+01 
-3.681246e-01 2.999916e+00 2.999858e+00 -9.981875e-05 2.623675e-04 0 1.237575e-03 1.560968e-07 1.179238e+01 
-3.387379e-01 3.000080e+00 3.000137e+00 -9.984001e-05 -2.378278e-04 0 -1.113963e-03 1.560968e-07 1.179238e+01 
-3.090170e-01 2.999916e+00 2.999859e+00 -9.981844e-05 2.138756e-04 0 9.962443e-04 1.560968e-07 1.179238e+01 
-2.789911e-01 3.000080e+00 3.000138e+00 -9.984042e-05 -1.905504e-04 0 -8.831287e-04 1.560968e-07 1.179238e+01 
-2.486899e-01 2.999916e+00 2.999859e+00 -9.981818e-05 1.678189e-04 0 7.747306e-04 1.560968e-07 1.179238e+01 
-2.181432e-01 3.000080e+00 3.000138e+00 -9.984076e-05 -1.456626e-04 0 -6.699179e-04 1.560968e-07 1.179238e+01 
-1.873813e-01 2.999916e+00 2.999858e+00 -9.981797e-05 1.239974e-04 0 5.686471e-04 1.560968e-07 1.179238e+01 
-1.564345e-01 3.000080e+00 3.000138e+00 -9.984101e-05 -1.027940e-04 0 -4.699947e-04 1.560968e-07 1.179238e+01 
-1.253332e-01 2.999916e+00 2.999858e+00 -9.981782e-05 8.195002e-05 0 3.738011e-04 1.560968e-07 1.179238e+01 
-9.410831e-02 3.000080e+00 3.000138e+00 -9.984118e-05 -6.143106e-05 0 -2.793292e-04 1.560968e-07 1.179238e+01 
-6.279052e-02 2.999916e+00 2.999858e+00 -9.981773e-05 4.114214e-05 0 1.863383e-04 1.560968e-07 1.179238e+01 
-3.141076e-02 3.000080e+00 3.000138e+00 -9.984126e-05 -2.101619e-05 0 -9.418362e-05 1.560968e-07 1.179238e+01 
-1.110223e-16 2.999916e+00 2.999858e+00 -9.981769e-05 9.348091e-07 0 2.448920e-06 1.560968e-07 1.179238e+01 
3.141076e-02 3.000080e+00 3.000138e+00 -9.984125e-05 1.914124e-05 0 8.928978e-05 1.560968e-07 1.179238e+01 
6.279052e-02 2.999916e+00 2.999858e+00 -9.981771e-05 -3.928593e-05 0 -1.814735e-04 1.560968e-07 1.179238e+01 
9.410831e-02 3.000080e+00 3.000138e+00 -9.984116e-05 5.955552e-05 0 2.744336e-04 1.560968e-07 1.179238e+01 
1.253332e-01 2.999916e+00 2.999858e+00 -9.981779e-05 -8.006513e-05 0 -3.688647e-04 1.560968e-07 1.179238e+01 
1.564345e-01 3.000080e+00 3.000138e+00 -9.984098e-05 1.008684e-04 0 4.649746e-04 1.560968e-07 1.179238e+01 
1.873813e-01 2.999916e+00 2.999858e+00 -9.981793e-05 -1.220536e-04 0 -5.635640e-04 1.560968e-07 1.179238e+01 
2.181432e-01 3.000080e+00 3.000138e+00 -9.984071e-05 1.436765e-04 0 6.647472e-04 1.560968e-07 1.179238e+01 
2.486899e-01 2.999916e+00 2.999859e+00 -9.981812e-05 -1.658027e-04 0 -7.694675e-04 1.560968e-07 1.179238e+01 
2.789911e-01 3.000080e+00 3.000138e+00 -9.984036e-05 1.884651e-04 0 8.777119e-04 1.560968e-07 1.179238e+01 
3.090170e-01 2.999916e+00 2.999859e+00 -9.981836e-05 -2.117424e-04 0 -9.906914e-04 1.560968e-07 1.179238e+01 
3.387379e-01 3.000080e+00 3.000137e+00 -9.983993e-05 2.356192e-04 0 1.108242e-03 1.560968e-07 1.179238e+01 
3.681246e-01 2.999916e+00 2.999858e+00 -9.981866e-05 -2.600995e-04 0 -1.231690e-03 1.560968e-07 1.179238e+01 
3.971479e-01 3.000078e+00 3.000136e+00 -9.983943e-05 2.851620e-04 0 1.360900e-03 1.560968e-07 1.179238e+01 
4.257793e-01 2.999911e+00 2.999854e+00 -9.981899e-05 -3.107997e-04 0 -1.497600e-03 1.560968e-07 1.179238e+01 
4.539905e-01 3.000066e+00 3.000123e+00 -9.983886e-05 3.369025e-04 0 1.641660e-03 1.560968e-07 1.179238e+01 
4.817537e-01 2.999879e+00 2.999822e+00 -9.981935e-05 -3.633776e-04 0 -1.795339e-03 1.560968e-07 1.179238e+01 
5.090414e-01 2.999984e+00 3.000041e+00 -9.983824e-05 3.899584e-04 0 1.958825e-03 1.560968e-07 1.179238e+01 
5.358268e-01 2.999684e+00 2.999627e+00 -9.981974e-05 -4.163605e-04 0 -2.135422e-03 1.560968e-07 1.179238e+01 
5.620834e-01 2.999548e+00 2.999605e+00 -9.983758e-05 4.421043e-04 0 2.326565e-03 1.560968e-07 1.179238e+01 
5.877853e-01 2.998768e+00 2.998711e+00 -9.982014e-05 -4.666583e-04 0 -2.537888e-03 1.560968e-07 1.179238e+01 
6.129071e-01 2.997731e+00 2.997788e+00 -9.983689e-05 4.893228e-04 0 2.773582e-03 1.560968e-07 1.179238e+01 
6.374240e-01 2.995368e+00 2.995311e+00 -9.982053e-05 -5.097563e-04 0 -3.044009e-03 1.560968e-07 1.179238e+01 
6.613119e-01 2.991713e+00 2.991770e+00 -9.983619e-05 5.279361e-04 0 3.358670e-03 1.560968e-07 1.179238e+01 
6.845471e-01 2.985265e+00 2.985208e+00 -9.982093e-05 -5.448675e-04 0 -3.734063e-03 1.560968e-07 1.179238e+01 
7.071068e-01 2.975583e+00 2.975641e+00 -9.983544e-05 5.627253e-04 0 4.184407e-03 1.560968e-07 1.179238e+01 
7.289686e-01 2.960706e+00 2.960650e+00 -9.982135e-05 -5.852367e-04 0 -4.727579e-03 1.560968e-07 1.179238e+01 
7.501111e-01 2.939809e+00 2.939866e+00 -9.983461e-05 6.169704e-04 0 5.370784e-03 1.560968e-07 1.179238e+01 
7.705132e-01 2.910690e+00 2.910635e+00 -9.982188e-05 -6.628222e-04 0 -6.113863e-03 1.560968e-07 1.179238e+01 
7.901550e-01 2.872479e+00 2.872532e+00 -9.983360e-05 7.256923e-04 0 6.932094e-03 1.560968e-07 1.179238e+01 
8.090170e-01 2.823131e+00 2.823080e+00 -9.982258e-05 -8.047656e-04 0 -7.781102e-03 1.560968e-07 1.179238e+01 
8.270806e-01 2.762154e+00 2.762201e+00 -9.983241e-05 8.925229e-04 0 8.589775e-03 1.560968e-07 1.179238e+01 
8.443279e-01 2.688026e+00 2.687982e+00 -9.982336e-05 -9.763375e-04 0 -9.279676e-03 1.560968e-07 1.179238e+01 
8.607420e-01 2.600932e+00 2.600971e+00 -9.983120e-05 1.039610e-03 0 9.781920e-03 1.560968e-07 1.179238e+01 
8.763067e-01 2.500051e+00 2.500016e+00 -9.982401e-05 -1.073072e-03 0 -1.005901e-02 1.560968e-07 1.179238e+01 
8.910065e-01 2.386325e+00 2.386356e+00 -9.983018e-05 1.073230e-03 0 1.011860e-02 1.560968e-07 1.179238e+01 
9.048271e-01 2.259621e+00 2.259594e+00 -9.982437e-05 -1.053985e-03 0 -9.984947e-03 1.560968e-07 1.179238e+01 
9.177546e-01 2.121542e+00 2.121565e+00 -9.982937e-05 1.013947e-03 0 9.693585e-03 1.560968e-07 1.179238e+01 
9.297765e-01 1.972515e+00 1.972496e+00 -9.982450e-05 -9.811020e-04 0 -9.284701e-03 1.560968e-07 1.179238e+01 
9.408808e-01 1.814636e+00 1.814653e+00 -9.982874e-05 9.034758e-04 0 8.699239e-03 1.560968e-07 1.179238e+01 
9.510565e-01 1.648756e+00 1.648741e+00 -9.982454e-05 -9.096249e-04 0 -8.243222e-03 1.560968e-07 1.179238e+01 
9.602937e-01 1.477329e+00 1.477339e+00 -9.982839e-05 7.074268e-04 0 7.115213e-03 1.560968e-07 1.179238e+01 
9.685832e-01 1.301608e+00 1.301595e+00 -9.982497e-05 -8.892115e-04 0 -7.355115e-03 1.560968e-07 1.179238e+01 
9.759168e-01 1.124458e+00 1.124459e+00 -9.982899e-05 4.331170e-04 0 4.610961e-03 1.560968e-07 1.179238e+01 
9.822873e-01 9.478416e-01 9.478222e-01 -9.982687e-05 -1.061688e-03 0 -7.799546e-03 1.560968e-07 1.179238e+01 
9.876883e-01 7.756374e-01 7.756206e-01 -9.983164e-05 5.991306e-04 0 5.564160e-04 1.560968e-07 1.179238e+01 
9.921147e-01 6.117722e-01 6.117343e-01 -9.983126e-05 -2.174026e-03 0 -1.241753e-02 1.560968e-07 1.179238e+01 
9.955620e-01 4.632450e-01 4.631946e-01 -9.983649e-05 5.889735e-04 0 -8.975543e-03 1.560968e-07 1.179238e+01 
9.980267e-01 3.396228e-01 3.395502e-01 -9.983713e-05 -2.329080e-03 0 -2.242087e-02 1.560968e-07 1.179238e+01 
9.995066e-01 2.550873e-01 2.549998e-01 -9.984076e-05 1.471574e-03 0 -2.195679e-02 1.560968e-07 1.179238e+01 
1 2.245423e-01 2.244479e-01 -9.984088e-05 -8.173112e-03 0 -3.798541e-02 1.560968e-07 1.179238e+01 
ZONE T="0.002", I=101
-1 2.245437e-01 2.244497e-01 -9.977389e-05 3.356754e-03 0 2.349546e-02 1.638771e-08 1.122673e+01 
-9.995066e-01 2.462823e-01 2.461931e-01 -9.977303e-05 -2.944537e-04 0 1.726444e-02 1.638771e-08 1.122673e+01 
-9.980267e-01 3.077558e-01 3.076785e-01 -9.976942e-05 1.194720e-03 0 1.611906e-02 1.638771e-08 1.122673e+01 
-9.955620e-01 4.003427e-01 4.002821e-01 -9.976587e-05 3.147793e-06 0 9.785038e-03 1.638771e-08 1.122673e+01 
-9.921147e-01 5.149000e-01 5.148536e-01 -9.976017e-05 9.645061e-04 0 8.817516e-03 1.638771e-08 1.122673e+01 
-9.876883e-01 6.442001e-01 6.441694e-01 -9.975655e-05 -1.372569e-05 0 3.456729e-03 1.638771e-08 1.122673e+01 
-9.822873e-01 7.829480e-01 7.829249e-01 -9.975150e-05 7.588797e-04 0 4.735817e-03 1.638771e-08 1.122673e+01 
-9.759168e-01 9.275402e-01 9.275289e-01 -9.974960e-05 -1.299842e-04 0 8.170708e-05 1.638771e-08 1.122673e+01 
-9.685832e-01 1.075204e+00 1.075193e+00 -9.974618e-05 5.780558e-04 0 3.117946e-03 1.638771e-08 1.122673e+01 
-9.602937e-01 1.223994e+00 1.223993e+00 -9.974609e-05 -2.486532e-04 0 -1.551798e-03 1.638771e-08 1.122673e+01 
-9.510565e-01 1.372145e+00 1.372138e+00 -9.974391e-05 4.580488e-04 0 2.705908e-03 1.638771e-08 1.122673e+01 
-9.408808e-01 1.518363e+00 1.518367e+00 -9.974498e-05 -3.271029e-04 0 -2.364866e-03 1.638771e-08 1.122673e+01 
-9.297765e-01 1.661291e+00 1.661284e+00 -9.974331e-05 4.031410e-04 0 2.782162e-03 1.638771e-08 1.122673e+01 
-9.177546e-01 1.799925e+00 1.799932e+00 -9.974495e-05 -3.673415e-04 0 -2.814174e-03 1.638771e-08 1.122673e+01 
-9.048271e-01 1.933128e+00 1.933120e+00 -9.974329e-05 3.898201e-04 0 2.992572e-03 1.638771e-08 1.122673e+01 
-8.910065e-01 2.060092e+00 2.060101e+00 -9.974527e-05 -3.852782e-04 0 -3.083259e-03 1.638771e-08 1.122673e+01 
-8.763067e-01 2.179874e+00 2.179864e+00 -9.974335e-05 3.923495e-04 0 3.170279e-03 1.638771e-08 1.122673e+01 
-8.607420e-01 2.291872e+00 2.291882e+00 -9.974569e-05 -3.929104e-04 0 -3.220854e-03 1.638771e-08 1.122673e+01 
-8.443279e-01 2.395377e+00 2.395364e+00 -9.974335e-05 3.943065e-04 0 3.238012e-03 1.638771e-08 1.122673e+01 
-8.270806e-01 2.490044e+00 2.490058e+00 -9.974618e-05 -3.910792e-04 0 -3.217405e-03 1.638771e-08 1.122673e+01 
-8.090170e-01 2.575464e+00 2.575449e+00 -9.974326e-05 3.856919e-04 0 3.156242e-03 1.638771e-08 1.122673e+01 
-7.901550e-01 2.651603e+00 2.651619e+00 -9.974672e-05 -3.754197e-04 0 -3.054976e-03 1.638771e-08 1.122673e+01 
-7.705132e-01 2.718398e+00 2.718381e+00 -9.974307e-05 3.615494e-04 0 2.914450e-03 1.638771e-08 1.122673e+01 
-7.501111e-01 2.776158e+00 2.776177e+00 -9.974730e-05 -3.436658e-04 0 -2.740979e-03 1.638771e-08 1.122673e+01 
-7.289686e-01 2.825176e+00 2.825156e+00 -9.974285e-05 3.242400e-04 0 2.543865e-03 1.638771e-08 1.122673e+01 
-7.071068e-01 2.866080e+00 2.866100e+00 -9.974787e-05 -3.035902e-04 0 -2.333307e-03 1.638771e-08 1.122673e+01 
-6.845471e-01 2.899463e+00 2.899442e+00 -9.974264e-05 2.840188e-04 0 2.120817e-03 1.638771e-08 1.122673e+01 
-6.613119e-01 2.926189e+00 2.926211e+00 -9.974838e-05 -2.658862e-04 0 -1.915866e-03 1.638771e-08 1.122673e+01 
-6.374240e-01 2.947030e+00 2.947008e+00 -9.974247e-05 2.501151e-04 0 1.725342e-03 1.638771e-08 1.122673e+01 
-6.129071e-01 2.962941e+00 2.962963e+00 -9.974882e-05 -2.360719e-04 0 -1.552533e-03 1.638771e-08 1.122673e+01 
-5.877853e-01 2.974712e+00 2.974689e+00 -9.974234e-05 2.240772e-04 0 1.399460e-03 1.638771e-08 1.122673e+01 
-5.620834e-01 2.983235e+00 2.983258e+00 -9.974920e-05 -2.131367e-04 0 -1.264874e-03 1.638771e-08 1.122673e+01 
-5.358268e-01 2.989172e+00 2.989150e+00 -9.974224e-05 2.031278e-04 0 1.147128e-03 1.638771e-08 1.122673e+01 
-5.090414e-01 2.993235e+00 2.993258e+00 -9.974954e-05 -1.933339e-04 0 -1.043568e-03 1.638771e-08 1.122673e+01 
-4.817537e-01 2.995876e+00 2.995853e+00 -9.974215e-05 1.838171e-04 0 9.520302e-04 1.638771e-08 1.122673e+01 
-4.539905e-01 2.997586e+00 2.997609e+00 -9.974985e-05 -1.739085e-04 0 -8.694303e-04 1.638771e-08 1.122673e+01 
-4.257793e-01 2.998608e+00 2.998585e+00 -9.974206e-05 1.638549e-04 0 7.941686e-04 1.638771e-08 1.122673e+01 
-3.971479e-01 2.999245e+00 2.999267e+00 -9.975014e-05 -1.533918e-04 0 -7.244074e-04 1.638771e-08 1.122673e+01 
-3.681246e-01 2.999581e+00 2.999558e+00 -9.974197e-05 1.427234e-04 0 6.589879e-04 1.638771e-08 1.122673e+01 
-3.387379e-01 2.999796e+00 2.999819e+00 -9.975039e-05 -1.316311e-04 0 -5.966350e-04 1.638771e-08 1.122673e+01 
-3.090170e-01 2.999883e+00 2.999860e+00 -9.974189e-05 1.204372e-04 0 5.370189e-04 1.638771e-08 1.122673e+01 
-2.789911e-01 2.999956e+00 2.999979e+00 -9.975062e-05 -1.088707e-04 0 -4.790932e-04 1.638771e-08 1.122673e+01 
-2.486899e-01 2.999965e+00 2.999942e+00 -9.974181e-05 9.715034e-05 0 4.226649e-04 1.638771e-08 1.122673e+01 
-2.181432e-01 2.999996e+00 3.000019e+00 -9.975080e-05 -8.528704e-05 0 -3.675787e-04 1.638771e-08 1.122673e+01 
-1.873813e-01 2.999984e+00 2.999961e+00 -9.974174e-05 7.339336e-05 0 3.136198e-04 1.638771e-08 1.122673e+01 
-1.564345e-01 3.000005e+00 3.000028e+00 -9.975094e-05 -6.126372e-05 0 -2.601844e-04 1.638771e-08 1.122673e+01 
-1.253332e-01 2.999988e+00 2.999965e+00 -9.974169e-05 4.912030e-05 0 2.074706e-04 1.638771e-08 1.122673e+01 
-9.410831e-02 3.000007e+00 3.000030e+00 -9.975104e-05 -3.693478e-05 0 -1.553260e-04 1.638771e-08 1.122673e+01 
-6.279052e-02 2.999989e+00 2.999966e+00 -9.974166e-05 2.467991e-05 0 1.034326e-04 1.638771e-08 1.122673e+01 
-3.141076e-02 3.000007e+00 3.000031e+00 -9.975108e-05 -1.231909e-05 0 -5.159731e-05 1.638771e-08 1.122673e+01 
-1.110223e-16 2.999989e+00 2.999966e+00 -9.974165e-05 2.693259e-10 0 3.440035e-09 1.638771e-08 1.122673e+01 
3.141076e-02 3.000007e+00 3.000031e+00 -9.975108e-05 1.229186e-05 0 5.152927e-05 1.638771e-08 1.122673e+01 
6.279052e-02 2.999989e+00 2.999966e+00 -9.974166e-05 -2.464139e-05 0 -1.033325e-04 1.638771e-08 1.122673e+01 
9.410831e-02 3.000007e+00 3.000030e+00 -9.975103e-05 3.691929e-05 0 1.552866e-04 1.638771e-08 1.122673e+01 
1.253332e-01 2.999988e+00 2.999965e+00 -9.974169e-05 -4.912959e-05 0 -2.074890e-04 1.638771e-08 1.122673e+01 
1.564345e-01 3.000005e+00 3.000028e+00 -9.975093e-05 6.125838e-05 0 2.601698e-04 1.638771e-08 1.122673e+01 
1.873813e-01 2.999984e+00 2.999961e+00 -9.974173e-05 -7.336015e-05 0 -3.135331e-04 1.638771e-08 1.122673e+01 
2.181432e-01 2.999996e+00 3.000019e+00 -9.975079e-05 8.526796e-05 0 3.675305e-04 1.638771e-08 1.122673e+01 
2.486899e-01 2.999965e+00 2.999942e+00 -9.974179e-05 -9.716090e-05 0 -4.226856e-04 1.638771e-08 1.122673e+01 
2.789911e-01 2.999956e+00 2.999979e+00 -9.975060e-05 1.088485e-04 0 4.790374e-04 1.638771e-08 1.122673e+01 
3.090170e-01 2.999883e+00 2.999860e+00 -9.974187e-05 -1.203962e-04 0 -5.369124e-04 1.638771e-08 1.122673e+01 
3.387379e-01 2.999796e+00 2.999819e+00 -9.975037e-05 1.316113e-04 0 5.965843e-04 1.638771e-08 1.122673e+01 
3.681246e-01 2.999581e+00 2.999558e+00 -9.974195e-05 -1.427287e-04 0 -6.589962e-04 1.638771e-08 1.122673e+01 
3.971479e-01 2.999245e+00 2.999267e+00 -9.975011e-05 1.534114e-04 0 7.244550e-04 1.638771e-08 1.122673e+01 
4.257793e-01 2.998608e+00 2.998585e+00 -9.974204e-05 -1.638693e-04 0 -7.941985e-04 1.638771e-08 1.122673e+01 
4.539905e-01 2.997586e+00 2.997609e+00 -9.974983e-05 1.738891e-04 0 8.693815e-04 1.638771e-08 1.122673e+01 
4.817537e-01 2.995876e+00 2.995853e+00 -9.974213e-05 -1.838084e-04 0 -9.520033e-04 1.638771e-08 1.122673e+01 
5.090414e-01 2.993235e+00 2.993258e+00 -9.974951e-05 1.933467e-04 0 1.043598e-03 1.638771e-08 1.122673e+01 
5.358268e-01 2.989172e+00 2.989150e+00 -9.974221e-05 -2.031382e-04 0 -1.147148e-03 1.638771e-08 1.122673e+01 
5.620834e-01 2.983235e+00 2.983258e+00 -9.974917e-05 2.131473e-04 0 1.264901e-03 1.638771e-08 1.122673e+01 
5.877853e-01 2.974712e+00 2.974689e+00 -9.974231e-05 -2.240980e-04 0 -1.399504e-03 1.638771e-08 1.122673e+01 
6.129071e-01 2.962941e+00 2.962963e+00 -9.974879e-05 2.360762e-04 0 1.552544e-03 1.638771e-08 1.122673e+01 
6.374240e-01 2.947030e+00 2.947008e+00 -9.974243e-05 -2.501404e-04 0 -1.725401e-03 1.638771e-08 1.122673e+01 
6.613119e-01 2.926189e+00 2.926211e+00 -9.974834e-05 2.659379e-04 0 1.915991e-03 1.638771e-08 1.122673e+01 
6.845471e-01 2.899463e+00 2.899442e+00 -9.974260e-05 -2.840574e-04 0 -2.120896e-03 1.638771e-08 1.122673e+01 
7.071068e-01 2.866080e+00 2.866100e+00 -9.974782e-05 3.035913e-04 0 2.333307e-03 1.638771e-08 1.122673e+01 
7.289686e-01 2.825176e+00 2.825156e+00 -9.974281e-05 -3.242529e-04 0 -2.543893e-03 1.638771e-08 1.122673e+01 
7.501111e-01 2.776158e+00 2.776177e+00 -9.974725e-05 3.436948e-04 0 2.741046e-03 1.638771e-08 1.122673e+01 
7.705132e-01 2.718398e+00 2.718381e+00 -9.974303e-05 -3.615895e-04 0 -2.914531e-03 1.638771e-08 1.122673e+01 
7.901550e-01 2.651603e+00 2.651619e+00 -9.974667e-05 3.754482e-04 0 3.055031e-03 1.638771e-08 1.122673e+01 
8.090170e-01 2.575464e+00 2.575449e+00 -9.974320e-05 -3.857339e-04 0 -3.156331e-03 1.638771e-08 1.122673e+01 
8.270806e-01 2.490044e+00 2.490058e+00 -9.974612e-05 3.911348e-04 0 3.217499e-03 1.638771e-08 1.122673e+01 
8.443279e-01 2.395377e+00 2.395364e+00 -9.974330e-05 -3.943532e-04 0 -3.238094e-03 1.638771e-08 1.122673e+01 
8.607420e-01 2.291872e+00 2.291882e+00 -9.974564e-05 3.929348e-04 0 3.220860e-03 1.638771e-08 1.122673e+01 
8.763067e-01 2.179874e+00 2.179864e+00 -9.974330e-05 -3.923545e-04 0 -3.170303e-03 1.638771e-08 1.122673e+01 
8.910065e-01 2.060092e+00 2.060101e+00 -9.974522e-05 3.852572e-04 0 3.083145e-03 1.638771e-08 1.122673e+01 
9.048271e-01 1.933128e+00 1.933120e+00 -9.974323e-05 -3.897516e-04 0 -2.992548e-03 1.638771e-08 1.122673e+01 
9.177546e-01 1.799925e+00 1.799932e+00 -9.974490e-05 3.673625e-04 0 2.814089e-03 1.638771e-08 1.122673e+01 
9.297765e-01 1.661291e+00 1.661284e+00 -9.974326e-05 -4.030663e-04 0 -2.782204e-03 1.638771e-08 1.122673e+01 
9.408808e-01 1.518363e+00 1.518367e+00 -9.974492e-05 3.271955e-04 0 2.364805e-03 1.638771e-08 1.122673e+01 
9.510565e-01 1.372145e+00 1.372138e+00 -9.974386e-05 -4.579161e-04 0 -2.705956e-03 1.638771e-08 1.122673e+01 
9.602937e-01 1.223994e+00 1.223993e+00 -9.974604e-05 2.488411e-04 0 1.551778e-03 1.638771e-08 1.122673e+01 
9.685832e-01 1.075204e+00 1.075193e+00 -9.974613e-05 -5.777921e-04 0 -3.117890e-03 1.638771e-08 1.122673e+01 
9.759168e-01 9.275402e-01 9.275289e-01 -9.974955e-05 1.302800e-04 0 -8.161935e-05 1.638771e-08 1.122673e+01 
9.822873e-01 7.829480e-01 7.829249e-01 -9.975146e-05 -7.585433e-04 0 -4.735672e-03 1.638771e-08 1.122673e+01 
9.876883e-01 6.442001e-01 6.441694e-01 -9.975651e-05 1.408361e-05 0 -3.456535e-03 1.638771e-08 1.122673e+01 
9.921147e-01 5.149000e-01 5.148536e-01 -9.976012e-05 -9.641623e-04 0 -8.817303e-03 1.638771e-08 1.122673e+01 
9.955620e-01 4.003427e-01 4.002821e-01 -9.976583e-05 -2.775745e-06 0 -9.784752e-03 1.638771e-08 1.122673e+01 
9.980267e-01 3.077558e-01 3.076785e-01 -9.976938e-05 -1.194353e-03 0 -1.611873e-02 1.638771e-08 1.122673e+01 
9.995066e-01 2.462823e-01 2.461931e-01 -9.977299e-05 2.948118e-04 0 -1.726408e-02 1.638771e-08 1.122673e+01 
1 2.245437e-01 2.244497e-01 -9.977385e-05 -3.356378e-03 0 -2.349506e-02 1.638771e-08 1.122673e+01 
ZONE T="0.003", I=101
-1 2.245438e-01 2.244500e-01 -9.972305e-05 1.455642e-03 0 1.751554e-02 6.296733e-09 1.079352e+01 
-9.995066e-01 2.423409e-01 2.422510e-01 -9.972179e-05 1.544599e-04 0 1.486187e-02 6.296733e-09 1.079352e+01 
-9.980267e-01 2.931733e-01 2.930936e-01 -9.971781e-05 6.832096e-04 0 1.321028e-02 6.296733e-09 1.079352e+01 
-9.955620e-01 3.708889e-01 3.708234e-01 -9.971254e-05 2.535632e-04 0 9.472546e-03 6.296733e-09 1.079352e+01 
-9.921147e-01 4.685511e-01 4.684996e-01 -9.970581e-05 5.832486e-04 0 7.542278e-03 6.296733e-09 1.079352e+01 
-9.876883e-01 5.802595e-01 5.802218e-01 -9.969967e-05 2.162097e-04 0 4.481034e-03 6.296733e-09 1.079352e+01 
-9.822873e-01 7.015157e-01 7.014880e-01 -9.969337e-05 4.638382e-04 0 3.817342e-03 6.296733e-09 1.079352e+01 
-9.759168e-01 8.290812e-01 8.290634e-01 -9.968882e-05 1.190941e-04 0 1.606432e-03 6.296733e-09 1.079352e+01 
-9.685832e-01 9.605285e-01 9.605155e-01 -9.968452e-05 3.368270e-04 0 1.984348e-03 6.296733e-09 1.079352e+01 
-9.602937e-01 1.094068e+00 1.094061e+00 -9.968219e-05 1.498960e-05 0 1.829933e-04 6.296733e-09 1.079352e+01 
-9.510565e-01 1.228218e+00 1.228212e+00 -9.967984e-05 2.351952e-04 0 1.224881e-03 6.296733e-09 1.079352e+01 
-9.408808e-01 1.361815e+00 1.361814e+00 -9.967919e-05 -6.308773e-05 0 -4.827942e-04 6.296733e-09 1.079352e+01 
-9.297765e-01 1.493783e+00 1.493780e+00 -9.967803e-05 1.733186e-04 0 9.820507e-04 6.296733e-09 1.079352e+01 
-9.177546e-01 1.623239e+00 1.623240e+00 -9.967829e-05 -1.076725e-04 0 -7.908497e-04 6.296733e-09 1.079352e+01 
-9.048271e-01 1.749308e+00 1.749305e+00 -9.967760e-05 1.463859e-04 0 9.574642e-04 6.296733e-09 1.079352e+01 
-8.910065e-01 1.871264e+00 1.871267e+00 -9.967825e-05 -1.283676e-04 0 -9.418891e-04 6.296733e-09 1.079352e+01 
-8.763067e-01 1.988370e+00 1.988367e+00 -9.967764e-05 1.395692e-04 0 1.002262e-03 6.296733e-09 1.079352e+01 
-8.607420e-01 2.100030e+00 2.100033e+00 -9.967847e-05 -1.365618e-04 0 -1.022273e-03 6.296733e-09 1.079352e+01 
-8.443279e-01 2.205644e+00 2.205641e+00 -9.967777e-05 1.400577e-04 0 1.047925e-03 6.296733e-09 1.079352e+01 
-8.270806e-01 2.304764e+00 2.304768e+00 -9.967874e-05 -1.404897e-04 0 -1.062176e-03 6.296733e-09 1.079352e+01 
-8.090170e-01 2.396953e+00 2.396949e+00 -9.967788e-05 1.418144e-04 0 1.068241e-03 6.296733e-09 1.079352e+01 
-7.901550e-01 2.481940e+00 2.481945e+00 -9.967904e-05 -1.408192e-04 0 -1.063427e-03 6.296733e-09 1.079352e+01 
-7.705132e-01 2.559486e+00 2.559481e+00 -9.967795e-05 1.402943e-04 0 1.049032e-03 6.296733e-09 1.079352e+01 
-7.501111e-01 2.629527e+00 2.629533e+00 -9.967934e-05 -1.383961e-04 0 -1.025259e-03 6.296733e-09 1.079352e+01 
-7.289686e-01 2.692047e+00 2.692041e+00 -9.967799e-05 1.354750e-04 0 9.904814e-04 6.296733e-09 1.079352e+01 
-7.071068e-01 2.747205e+00 2.747211e+00 -9.967965e-05 -1.306412e-04 0 -9.455180e-04 6.296733e-09 1.079352e+01 
-6.845471e-01 2.795211e+00 2.795204e+00 -9.967800e-05 1.254230e-04 0 8.930119e-04 6.296733e-09 1.079352e+01 
-6.613119e-01 2.836437e+00 2.836444e+00 -9.967996e-05 -1.192941e-04 0 -8.350048e-04 6.296733e-09 1.079352e+01 
-6.374240e-01 2.871293e+00 2.871286e+00 -9.967800e-05 1.130082e-04 0 7.735041e-04 6.296733e-09 1.079352e+01 
-6.129071e-01 2.900320e+00 2.900328e+00 -9.968025e-05 -1.058805e-04 0 -7.097582e-04 6.296733e-09 1.079352e+01 
-5.877853e-01 2.924067e+00 2.924059e+00 -9.967800e-05 9.900343e-05 0 6.466927e-04 6.296733e-09 1.079352e+01 
-5.620834e-01 2.943167e+00 2.943176e+00 -9.968051e-05 -9.261639e-05 0 -5.871831e-04 6.296733e-09 1.079352e+01 
-5.358268e-01 2.958226e+00 2.958218e+00 -9.967802e-05 8.725336e-05 0 5.327207e-04 6.296733e-09 1.079352e+01 
-5.090414e-01 2.969882e+00 2.969890e+00 -9.968073e-05 -8.188635e-05 0 -4.821491e-04 6.296733e-09 1.079352e+01 
-4.817537e-01 2.978702e+00 2.978693e+00 -9.967804e-05 7.680360e-05 0 4.356633e-04 6.296733e-09 1.079352e+01 
-4.539905e-01 2.985250e+00 2.985259e+00 -9.968093e-05 -7.170576e-05 0 -3.931470e-04 6.296733e-09 1.079352e+01 
-4.257793e-01 2.989989e+00 2.989981e+00 -9.967806e-05 6.698587e-05 0 3.547977e-04 6.296733e-09 1.079352e+01 
-3.971479e-01 2.993356e+00 2.993365e+00 -9.968110e-05 -6.241979e-05 0 -3.202496e-04 6.296733e-09 1.079352e+01 
-3.681246e-01 2.995678e+00 2.995670e+00 -9.967808e-05 5.813701e-05 0 2.889727e-04 6.296733e-09 1.079352e+01 
-3.387379e-01 2.997257e+00 2.997265e+00 -9.968125e-05 -5.360249e-05 0 -2.596512e-04 6.296733e-09 1.079352e+01 
-3.090170e-01 2.998289e+00 2.998281e+00 -9.967809e-05 4.901538e-05 0 2.320017e-04 6.296733e-09 1.079352e+01 
-2.789911e-01 2.998963e+00 2.998972e+00 -9.968137e-05 -4.429335e-05 0 -2.058065e-04 6.296733e-09 1.079352e+01 
-2.486899e-01 2.999378e+00 2.999370e+00 -9.967810e-05 3.971918e-05 0 1.811487e-04 6.296733e-09 1.079352e+01 
-2.181432e-01 2.999642e+00 2.999650e+00 -9.968147e-05 -3.495464e-05 0 -1.571956e-04 6.296733e-09 1.079352e+01 
-1.873813e-01 2.999791e+00 2.999782e+00 -9.967811e-05 2.999025e-05 0 1.334695e-04 6.296733e-09 1.079352e+01 
-1.564345e-01 2.999887e+00 2.999895e+00 -9.968155e-05 -2.487730e-05 0 -1.101165e-04 6.296733e-09 1.079352e+01 
-1.253332e-01 2.999933e+00 2.999924e+00 -9.967811e-05 1.990810e-05 0 8.753637e-05 6.296733e-09 1.079352e+01 
-9.410831e-02 2.999967e+00 2.999975e+00 -9.968161e-05 -1.489154e-05 0 -6.527511e-05 6.296733e-09 1.079352e+01 
-6.279052e-02 2.999977e+00 2.999968e+00 -9.967812e-05 9.895024e-06 0 4.328227e-05 6.296733e-09 1.079352e+01 
-3.141076e-02 2.999989e+00 2.999998e+00 -9.968163e-05 -4.921038e-06 0 -2.154244e-05 6.296733e-09 1.079352e+01 
-1.110223e-16 2.999986e+00 2.999978e+00 -9.967811e-05 -6.911128e-08 0 -1.669227e-07 6.296733e-09 1.079352e+01 
3.141076e-02 2.999989e+00 2.999998e+00 -9.968163e-05 5.039265e-06 0 2.182739e-05 6.296733e-09 1.079352e+01 
6.279052e-02 2.999977e+00 2.999968e+00 -9.967811e-05 -9.927256e-06 0 -4.335179e-05 6.296733e-09 1.079352e+01 
9.410831e-02 2.999967e+00 2.999975e+00 -9.968160e-05 1.488035e-05 0 6.524120e-05 6.296733e-09 1.079352e+01 
1.253332e-01 2.999933e+00 2.999924e+00 -9.967811e-05 -2.001434e-05 0 -8.778887e-05 6.296733e-09 1.079352e+01 
1.564345e-01 2.999887e+00 2.999895e+00 -9.968155e-05 2.498983e-05 0 1.103850e-04 6.296733e-09 1.079352e+01 
1.873813e-01 2.999791e+00 2.999782e+00 -9.967810e-05 -2.988647e-05 0 -1.332015e-04 6.296733e-09 1.079352e+01 
2.181432e-01 2.999642e+00 2.999650e+00 -9.968147e-05 3.472732e-05 0 1.566228e-04 6.296733e-09 1.079352e+01 
2.486899e-01 2.999378e+00 2.999370e+00 -9.967810e-05 -3.963132e-05 0 -1.809194e-04 6.296733e-09 1.079352e+01 
2.789911e-01 2.998963e+00 2.998972e+00 -9.968136e-05 4.432579e-05 0 2.058743e-04 6.296733e-09 1.079352e+01 
3.090170e-01 2.998289e+00 2.998281e+00 -9.967809e-05 -4.893683e-05 0 -2.317950e-04 6.296733e-09 1.079352e+01 
3.387379e-01 2.997257e+00 2.997265e+00 -9.968124e-05 5.345601e-05 0 2.592793e-04 6.296733e-09 1.079352e+01 
3.681246e-01 2.995678e+00 2.995670e+00 -9.967807e-05 -5.812170e-05 0 -2.889232e-04 6.296733e-09 1.079352e+01 
3.971479e-01 2.993356e+00 2.993365e+00 -9.968109e-05 6.250299e-05 0 3.204450e-04 6.296733e-09 1.079352e+01 
4.257793e-01 2.989989e+00 2.989981e+00 -9.967805e-05 -6.699899e-05 0 -3.548134e-04 6.296733e-09 1.079352e+01 
4.539905e-01 2.985250e+00 2.985259e+00 -9.968092e-05 7.155438e-05 0 3.927595e-04 6.296733e-09 1.079352e+01 
4.817537e-01 2.978702e+00 2.978693e+00 -9.967802e-05 -7.660843e-05 0 -4.351749e-04 6.296733e-09 1.079352e+01 
5.090414e-01 2.969882e+00 2.969890e+00 -9.968072e-05 8.183168e-05 0 4.820183e-04 6.296733e-09 1.079352e+01 
5.358268e-01 2.958226e+00 2.958218e+00 -9.967800e-05 -8.738734e-05 0 -5.330482e-04 6.296733e-09 1.079352e+01 
5.620834e-01 2.943167e+00 2.943176e+00 -9.968049e-05 9.276273e-05 0 5.875215e-04 6.296733e-09 1.079352e+01 