TITLE = "2 species of PNP-Steric with high order term" 
VARIABLES = "X" "Conc1" "Conc2" "phi" "Current_x""I_ext" "I_PNP" "CURRENT" "ENERGY" "
ZONE T="0.001", I=51
-1 2.176942e-01 2.177042e-01 1.010388e-05 3.826039e-04 -8.668412e-04 1.249445e-03 9.834904e-10 1.177780e+01 
-9.971226e-01 3.844851e-01 3.844921e-01 1.010656e-05 1.542900e-03 5.027708e-03 -3.484808e-03 9.834904e-10 1.177780e+01 
-9.903648e-01 6.664566e-01 6.664649e-01 1.011300e-05 1.416588e-04 -2.603307e-03 2.744966e-03 9.834904e-10 1.177780e+01 
-9.797745e-01 1.013075e+00 1.013066e+00 1.012483e-05 -2.150235e-03 5.859453e-03 -8.009688e-03 9.834904e-10 1.177780e+01 
-9.653935e-01 1.347193e+00 1.347168e+00 1.013623e-05 -5.913889e-03 -7.244949e-03 1.331060e-03 9.834904e-10 1.177780e+01 
-9.472774e-01 1.693828e+00 1.693746e+00 1.013269e-05 -5.012470e-03 2.498319e-03 -7.510789e-03 9.834904e-10 1.177780e+01 
-9.254965e-01 1.993936e+00 1.994019e+00 1.007433e-05 7.596425e-03 -2.200126e-02 2.959768e-02 9.834904e-10 1.177780e+01 
-9.001349e-01 2.279861e+00 2.279918e+00 1.009912e-05 2.107748e-03 3.846361e-02 -3.635586e-02 9.834904e-10 1.177780e+01 
-8.712910e-01 2.500744e+00 2.500576e+00 1.015521e-05 -7.818087e-03 -3.168170e-02 2.386362e-02 9.834904e-10 1.177780e+01 
-8.390761e-01 2.691879e+00 2.692069e+00 1.004290e-05 6.574010e-03 1.470338e-02 -8.129374e-03 9.834904e-10 1.177780e+01 
-8.036151e-01 2.814479e+00 2.814320e+00 1.015712e-05 -3.311839e-03 -1.539104e-03 -1.772734e-03 9.834904e-10 1.177780e+01 
-7.650450e-01 2.910423e+00 2.910542e+00 1.005971e-05 8.970838e-04 -5.116850e-03 6.013933e-03 9.834904e-10 1.177780e+01 
-7.235151e-01 2.952742e+00 2.952657e+00 1.013455e-05 2.734231e-04 7.070122e-03 -6.796699e-03 9.834904e-10 1.177780e+01 
-6.791861e-01 2.987258e+00 2.987320e+00 1.007502e-05 -6.977694e-04 -7.011095e-03 6.313326e-03 9.834904e-10 1.177780e+01 
-6.322294e-01 2.990283e+00 2.990236e+00 1.012223e-05 7.608099e-04 6.131443e-03 -5.370633e-03 9.834904e-10 1.177780e+01 
-5.828267e-01 3.002447e+00 3.002484e+00 1.008200e-05 -7.034353e-04 -5.180693e-03 4.477258e-03 9.834904e-10 1.177780e+01 
-5.311692e-01 2.995707e+00 2.995677e+00 1.011628e-05 6.032740e-04 4.260349e-03 -3.657075e-03 9.834904e-10 1.177780e+01 
-4.774567e-01 3.003807e+00 3.003832e+00 1.008530e-05 -5.080636e-04 -3.499650e-03 2.991586e-03 9.834904e-10 1.177780e+01 
-4.218971e-01 2.996153e+00 2.996131e+00 1.011307e-05 4.168584e-04 2.830768e-03 -2.413909e-03 9.834904e-10 1.177780e+01 
-3.647051e-01 3.003785e+00 3.003805e+00 1.008705e-05 -3.397814e-04 -2.281177e-03 1.941395e-03 9.834904e-10 1.177780e+01 
-3.061023e-01 2.996234e+00 2.996217e+00 1.011123e-05 2.688084e-04 1.792916e-03 -1.524108e-03 9.834904e-10 1.177780e+01 
-2.463151e-01 3.003732e+00 3.003748e+00 1.008802e-05 -2.076359e-04 -1.376097e-03 1.168461e-03 9.834904e-10 1.177780e+01 
-1.855750e-01 2.996278e+00 2.996263e+00 1.011019e-05 1.503603e-04 9.936276e-04 -8.432673e-04 9.834904e-10 1.177780e+01 
-1.241170e-01 3.003701e+00 3.003716e+00 1.008851e-05 -9.846983e-05 -6.484272e-04 5.499574e-04 9.834904e-10 1.177780e+01 
-6.217878e-02 2.996299e+00 2.996285e+00 1.010972e-05 4.838424e-05 3.184414e-04 -2.700571e-04 9.834904e-10 1.177780e+01 
0 3.003692e+00 3.003705e+00 1.008866e-05 8.408028e-10 1.186043e-09 -3.454235e-10 9.834904e-10 1.177780e+01 
6.217878e-02 2.996299e+00 2.996285e+00 1.010972e-05 -4.838346e-05 -3.184431e-04 2.700597e-04 9.834904e-10 1.177780e+01 
1.241170e-01 3.003701e+00 3.003716e+00 1.008850e-05 9.847125e-05 6.484278e-04 -5.499565e-04 9.834904e-10 1.177780e+01 
1.855750e-01 2.996278e+00 2.996263e+00 1.011018e-05 -1.503592e-04 -9.936271e-04 8.432679e-04 9.834904e-10 1.177780e+01 
2.463151e-01 3.003732e+00 3.003748e+00 1.008800e-05 2.076370e-04 1.376095e-03 -1.168458e-03 9.834904e-10 1.177780e+01 
3.061023e-01 2.996234e+00 2.996217e+00 1.011121e-05 -2.688069e-04 -1.792913e-03 1.524106e-03 9.834904e-10 1.177780e+01 
3.647051e-01 3.003785e+00 3.003805e+00 1.008703e-05 3.397819e-04 2.281171e-03 -1.941389e-03 9.834904e-10 1.177780e+01 
4.218971e-01 2.996153e+00 2.996131e+00 1.011305e-05 -4.168562e-04 -2.830760e-03 2.413904e-03 9.834904e-10 1.177780e+01 
4.774567e-01 3.003807e+00 3.003832e+00 1.008527e-05 5.080637e-04 3.499642e-03 -2.991578e-03 9.834904e-10 1.177780e+01 
5.311692e-01 2.995707e+00 2.995677e+00 1.011625e-05 -6.032718e-04 -4.260341e-03 3.657069e-03 9.834904e-10 1.177780e+01 
5.828267e-01 3.002447e+00 3.002484e+00 1.008197e-05 7.034352e-04 5.180683e-03 -4.477248e-03 9.834904e-10 1.177780e+01 
6.322294e-01 2.990283e+00 2.990236e+00 1.012219e-05 -7.608072e-04 -6.131431e-03 5.370624e-03 9.834904e-10 1.177780e+01 
6.791861e-01 2.987258e+00 2.987320e+00 1.007499e-05 6.977696e-04 7.011084e-03 -6.313315e-03 9.834904e-10 1.177780e+01 
7.235151e-01 2.952742e+00 2.952657e+00 1.013452e-05 -2.734224e-04 -7.070118e-03 6.796695e-03 9.834904e-10 1.177780e+01 
7.650450e-01 2.910423e+00 2.910542e+00 1.005967e-05 -8.970810e-04 5.116851e-03 -6.013932e-03 9.834904e-10 1.177780e+01 
8.036151e-01 2.814479e+00 2.814320e+00 1.015708e-05 3.311838e-03 1.539102e-03 1.772736e-03 9.834904e-10 1.177780e+01 
8.390761e-01 2.691879e+00 2.692069e+00 1.004286e-05 -6.574008e-03 -1.470339e-02 8.129379e-03 9.834904e-10 1.177780e+01 
8.712910e-01 2.500744e+00 2.500576e+00 1.015517e-05 7.818088e-03 3.168172e-02 -2.386363e-02 9.834904e-10 1.177780e+01 
9.001349e-01 2.279861e+00 2.279918e+00 1.009908e-05 -2.107739e-03 -3.846364e-02 3.635590e-02 9.834904e-10 1.177780e+01 
9.254965e-01 1.993936e+00 1.994019e+00 1.007428e-05 -7.596451e-03 2.200126e-02 -2.959771e-02 9.834904e-10 1.177780e+01 
9.472774e-01 1.693828e+00 1.693746e+00 1.013265e-05 5.012488e-03 -2.498274e-03 7.510762e-03 9.834904e-10 1.177780e+01 
9.653935e-01 1.347193e+00 1.347168e+00 1.013618e-05 5.913910e-03 7.244893e-03 -1.330983e-03 9.834904e-10 1.177780e+01 
9.797745e-01 1.013075e+00 1.013066e+00 1.012478e-05 2.150175e-03 -5.859438e-03 8.009613e-03 9.834904e-10 1.177780e+01 
9.903648e-01 6.664566e-01 6.664649e-01 1.011295e-05 -1.416283e-04 2.603326e-03 -2.744954e-03 9.834904e-10 1.177780e+01 
9.971226e-01 3.844851e-01 3.844921e-01 1.010651e-05 -1.542880e-03 -5.027702e-03 3.484823e-03 9.834904e-10 1.177780e+01 
1 2.176942e-01 2.177042e-01 1.010383e-05 -3.826139e-04 8.668538e-04 -1.249468e-03 9.834904e-10 1.177780e+01 
ZONE T="0.002", I=51
-1 2.179349e-01 2.179509e-01 1.633737e-05 -5.381231e-04 4.075350e-04 -9.456581e-04 -1.974533e-09 1.119524e+01 
-9.971226e-01 3.382428e-01 3.382545e-01 1.633393e-05 1.203131e-03 4.618845e-03 -3.415714e-03 -1.974533e-09 1.119524e+01 
-9.903648e-01 5.595565e-01 5.595677e-01 1.632639e-05 7.045485e-04 -1.189118e-03 1.893666e-03 -1.974533e-09 1.119524e+01 
-9.797745e-01 8.339064e-01 8.339138e-01 1.631696e-05 2.077048e-03 4.209775e-03 -2.132727e-03 -1.974533e-09 1.119524e+01 
-9.653935e-01 1.117211e+00 1.117237e+00 1.630714e-05 2.494947e-03 -3.028376e-03 5.523323e-03 -1.974533e-09 1.119524e+01 
-9.472774e-01 1.410108e+00 1.410133e+00 1.631042e-05 2.730802e-03 6.911816e-03 -4.181014e-03 -1.974533e-09 1.119524e+01 
-9.254965e-01 1.685338e+00 1.685360e+00 1.633595e-05 -1.717224e-03 -1.228473e-03 -4.887505e-04 -1.974533e-09 1.119524e+01 
-9.001349e-01 1.951494e+00 1.951377e+00 1.637125e-05 -5.292324e-03 6.782608e-03 -1.207493e-02 -1.974533e-09 1.119524e+01 
-8.712910e-01 2.185214e+00 2.185287e+00 1.627614e-05 4.137148e-03 -2.565337e-02 2.979052e-02 -1.974533e-09 1.119524e+01 
-8.390761e-01 2.397256e+00 2.397328e+00 1.629976e-05 2.328399e-03 3.537161e-02 -3.304321e-02 -1.974533e-09 1.119524e+01 
-8.036151e-01 2.568532e+00 2.568353e+00 1.639320e-05 -5.741291e-03 -2.810383e-02 2.236254e-02 -1.974533e-09 1.119524e+01 
-7.650450e-01 2.712011e+00 2.712217e+00 1.622547e-05 4.933603e-03 1.378118e-02 -8.847579e-03 -1.974533e-09 1.119524e+01 
-7.235151e-01 2.814668e+00 2.814489e+00 1.639909e-05 -2.630147e-03 -1.982275e-03 -6.478721e-04 -1.974533e-09 1.119524e+01 
-6.791861e-01 2.893080e+00 2.893216e+00 1.625140e-05 7.356920e-04 -4.628605e-03 5.364297e-03 -1.974533e-09 1.119524e+01 
-6.322294e-01 2.939187e+00 2.939089e+00 1.636380e-05 3.133444e-04 7.096022e-03 -6.782677e-03 -1.974533e-09 1.119524e+01 
-5.828267e-01 2.972073e+00 2.972144e+00 1.627945e-05 -7.400197e-04 -7.359082e-03 6.619062e-03 -1.974533e-09 1.119524e+01 
-5.311692e-01 2.985121e+00 2.985070e+00 1.634194e-05 8.296177e-04 6.633153e-03 -5.803535e-03 -1.974533e-09 1.119524e+01 
-4.774567e-01 2.996147e+00 2.996184e+00 1.629357e-05 -7.740556e-04 -5.642083e-03 4.868027e-03 -1.974533e-09 1.119524e+01 
-4.218971e-01 2.996526e+00 2.996497e+00 1.633135e-05 6.662623e-04 4.631654e-03 -3.965392e-03 -1.974533e-09 1.119524e+01 
-3.647051e-01 3.000879e+00 3.000902e+00 1.630022e-05 -5.501839e-04 -3.728559e-03 3.178375e-03 -1.974533e-09 1.119524e+01 
-3.061023e-01 2.998325e+00 2.998306e+00 1.632607e-05 4.387830e-04 2.926723e-03 -2.487940e-03 -1.974533e-09 1.119524e+01 
-2.463151e-01 3.001435e+00 3.001451e+00 1.630352e-05 -3.375920e-04 -2.230504e-03 1.892912e-03 -1.974533e-09 1.119524e+01 
-1.855750e-01 2.998511e+00 2.998497e+00 1.632338e-05 2.447855e-04 1.606430e-03 -1.361645e-03 -1.974533e-09 1.119524e+01 
-1.241170e-01 3.001464e+00 3.001477e+00 1.630509e-05 -1.594150e-04 -1.042221e-03 8.828064e-04 -1.974533e-09 1.119524e+01 
-6.217878e-02 2.998530e+00 2.998518e+00 1.632223e-05 7.847222e-05 5.117098e-04 -4.332375e-04 -1.974533e-09 1.119524e+01 
0 3.001461e+00 3.001473e+00 1.630556e-05 -8.001650e-10 5.010748e-09 -5.810772e-09 -1.974533e-09 1.119524e+01 
6.217878e-02 2.998530e+00 2.998518e+00 1.632224e-05 -7.847546e-05 -5.117227e-04 4.332472e-04 -1.974533e-09 1.119524e+01 
1.241170e-01 3.001464e+00 3.001477e+00 1.630510e-05 1.594143e-04 1.042238e-03 -8.828235e-04 -1.974533e-09 1.119524e+01 
1.855750e-01 2.998511e+00 2.998497e+00 1.632340e-05 -2.447876e-04 -1.606437e-03 1.361650e-03 -1.974533e-09 1.119524e+01 
2.463151e-01 3.001435e+00 3.001451e+00 1.630354e-05 3.375865e-04 2.230490e-03 -1.892903e-03 -1.974533e-09 1.119524e+01 
3.061023e-01 2.998325e+00 2.998306e+00 1.632610e-05 -4.387813e-04 -2.926705e-03 2.487923e-03 -1.974533e-09 1.119524e+01 
3.647051e-01 3.000879e+00 3.000902e+00 1.630026e-05 5.501805e-04 3.728560e-03 -3.178380e-03 -1.974533e-09 1.119524e+01 
4.218971e-01 2.996526e+00 2.996497e+00 1.633139e-05 -6.662649e-04 -4.631666e-03 3.965402e-03 -1.974533e-09 1.119524e+01 
4.774567e-01 2.996147e+00 2.996184e+00 1.629361e-05 7.740550e-04 5.642101e-03 -4.868046e-03 -1.974533e-09 1.119524e+01 
5.311692e-01 2.985121e+00 2.985070e+00 1.634199e-05 -8.296220e-04 -6.633180e-03 5.803558e-03 -1.974533e-09 1.119524e+01 
5.828267e-01 2.972073e+00 2.972144e+00 1.627951e-05 7.400183e-04 7.359102e-03 -6.619083e-03 -1.974533e-09 1.119524e+01 
6.322294e-01 2.939187e+00 2.939089e+00 1.636385e-05 -3.133459e-04 -7.096035e-03 6.782690e-03 -1.974533e-09 1.119524e+01 
6.791861e-01 2.893080e+00 2.893216e+00 1.625146e-05 -7.356958e-04 4.628619e-03 -5.364315e-03 -1.974533e-09 1.119524e+01 
7.235151e-01 2.814668e+00 2.814489e+00 1.639915e-05 2.630149e-03 1.982270e-03 6.478792e-04 -1.974533e-09 1.119524e+01 
7.650450e-01 2.712011e+00 2.712217e+00 1.622554e-05 -4.933608e-03 -1.378117e-02 8.847566e-03 -1.974533e-09 1.119524e+01 
8.036151e-01 2.568532e+00 2.568353e+00 1.639327e-05 5.741293e-03 2.810381e-02 -2.236252e-02 -1.974533e-09 1.119524e+01 
8.390761e-01 2.397256e+00 2.397328e+00 1.629983e-05 -2.328413e-03 -3.537159e-02 3.304317e-02 -1.974533e-09 1.119524e+01 
8.712910e-01 2.185214e+00 2.185287e+00 1.627622e-05 -4.137129e-03 2.565338e-02 -2.979051e-02 -1.974533e-09 1.119524e+01 
9.001349e-01 1.951494e+00 1.951377e+00 1.637133e-05 5.292308e-03 -6.782649e-03 1.207496e-02 -1.974533e-09 1.119524e+01 
9.254965e-01 1.685338e+00 1.685360e+00 1.633603e-05 1.717216e-03 1.228511e-03 4.887049e-04 -1.974533e-09 1.119524e+01 
9.472774e-01 1.410108e+00 1.410133e+00 1.631050e-05 -2.730796e-03 -6.911832e-03 4.181036e-03 -1.974533e-09 1.119524e+01 
9.653935e-01 1.117211e+00 1.117237e+00 1.630723e-05 -2.494944e-03 3.028391e-03 -5.523335e-03 -1.974533e-09 1.119524e+01 
9.797745e-01 8.339064e-01 8.339138e-01 1.631705e-05 -2.077040e-03 -4.209793e-03 2.132752e-03 -1.974533e-09 1.119524e+01 
9.903648e-01 5.595565e-01 5.595677e-01 1.632648e-05 -7.045658e-04 1.189120e-03 -1.893686e-03 -1.974533e-09 1.119524e+01 
9.971226e-01 3.382428e-01 3.382545e-01 1.633402e-05 -1.203120e-03 -4.618860e-03 3.415740e-03 -1.974533e-09 1.119524e+01 
1 2.179349e-01 2.179509e-01 1.633746e-05 5.381341e-04 -4.075506e-04 9.456846e-04 -1.974533e-09 1.119524e+01 
ZONE T="0.003", I=51
-1 2.179686e-01 2.179965e-01 2.883395e-05 -1.177477e-03 2.229246e-03 -3.406724e-03 -1.686862e-09 1.074828e+01 
-9.971226e-01 3.173135e-01 3.173343e-01 2.883414e-05 5.266803e-04 5.640727e-03 -5.114046e-03 -1.686862e-09 1.074828e+01 
-9.903648e-01 5.071792e-01 5.071936e-01 2.883567e-05 -3.275123e-04 -3.211401e-04 -6.372205e-06 -1.686862e-09 1.074828e+01 
-9.797745e-01 7.457483e-01 7.457502e-01 2.884078e-05 -6.154663e-06 3.652380e-03 -3.658535e-03 -1.686862e-09 1.074828e+01 
-9.653935e-01 9.994819e-01 9.994841e-01 2.884815e-05 -1.241729e-03 -3.171899e-03 1.930170e-03 -1.686862e-09 1.074828e+01 
-9.472774e-01 1.262904e+00 1.262879e+00 2.885740e-05 -1.673405e-03 3.946812e-03 -5.620217e-03 -1.686862e-09 1.074828e+01 
-9.254965e-01 1.517995e+00 1.517977e+00 2.884878e-05 -1.830438e-03 -6.260049e-03 4.429611e-03 -1.686862e-09 1.074828e+01 
-9.001349e-01 1.767061e+00 1.767044e+00 2.881466e-05 1.833468e-03 1.680936e-03 1.525322e-04 -1.686862e-09 1.074828e+01 
-8.712910e-01 1.995525e+00 1.995645e+00 2.877747e-05 3.749876e-03 -5.512596e-03 9.262472e-03 -1.686862e-09 1.074828e+01 
-8.390761e-01 2.207699e+00 2.207592e+00 2.889958e-05 -4.231340e-03 2.284339e-02 -2.707473e-02 -1.686862e-09 1.074828e+01 
-8.036151e-01 2.391045e+00 2.391013e+00 2.882792e-05 -8.100135e-04 -3.541272e-02 3.460271e-02 -1.686862e-09 1.074828e+01 
-7.650450e-01 2.551444e+00 2.551614e+00 2.874513e-05 4.819474e-03 3.240424e-02 -2.758477e-02 -1.686862e-09 1.074828e+01 
-7.235151e-01 2.680071e+00 2.679840e+00 2.894831e-05 -5.128080e-03 -1.934901e-02 1.422093e-02 -1.686862e-09 1.074828e+01 
-6.791861e-01 2.784516e+00 2.784737e+00 2.870587e-05 3.279732e-03 5.894207e-03 -2.614476e-03 -1.686862e-09 1.074828e+01 
-6.322294e-01 2.859899e+00 2.859722e+00 2.892318e-05 -1.261639e-03 3.054581e-03 -4.316219e-03 -1.686862e-09 1.074828e+01 
-5.828267e-01 2.916231e+00 2.916361e+00 2.875227e-05 -8.254884e-05 -7.362813e-03 7.280264e-03 -1.686862e-09 1.074828e+01 
-5.311692e-01 2.950924e+00 2.950832e+00 2.887632e-05 7.384485e-04 8.534844e-03 -7.796396e-03 -1.686862e-09 1.074828e+01 
-4.774567e-01 2.975204e+00 2.975267e+00 2.878802e-05 -9.487025e-04 -8.124737e-03 7.176035e-03 -1.686862e-09 1.074828e+01 
-4.218971e-01 2.986506e+00 2.986461e+00 2.884969e-05 9.298152e-04 7.050873e-03 -6.121058e-03 -1.686862e-09 1.074828e+01 
-3.647051e-01 2.995068e+00 2.995099e+00 2.880572e-05 -8.148617e-04 -5.823413e-03 5.008551e-03 -1.686862e-09 1.074828e+01 
-3.061023e-01 2.996741e+00 2.996718e+00 2.883693e-05 6.689193e-04 4.626174e-03 -3.957255e-03 -1.686862e-09 1.074828e+01 
-2.463151e-01 2.999889e+00 2.999906e+00 2.881398e-05 -5.210188e-04 -3.537964e-03 3.016946e-03 -1.686862e-09 1.074828e+01 
-1.855750e-01 2.998838e+00 2.998825e+00 2.883093e-05 3.800071e-04 2.551181e-03 -2.171174e-03 -1.686862e-09 1.074828e+01 
-1.241170e-01 3.000709e+00 3.000720e+00 2.881769e-05 -2.478212e-04 -1.653321e-03 1.405500e-03 -1.686862e-09 1.074828e+01 
-6.217878e-02 2.999140e+00 2.999130e+00 2.882848e-05 1.221187e-04 8.116446e-04 -6.895259e-04 -1.686862e-09 1.074828e+01 
0 3.000798e+00 3.000807e+00 2.881876e-05 1.575517e-10 1.015341e-08 -9.996022e-09 -1.686862e-09 1.074828e+01 
6.217878e-02 2.999140e+00 2.999130e+00 2.882849e-05 -1.221241e-04 -8.116651e-04 6.895410e-04 -1.686862e-09 1.074828e+01 
1.241170e-01 3.000709e+00 3.000720e+00 2.881770e-05 2.478242e-04 1.653357e-03 -1.405533e-03 -1.686862e-09 1.074828e+01 
1.855750e-01 2.998838e+00 2.998825e+00 2.883094e-05 -3.800140e-04 -2.551217e-03 2.171203e-03 -1.686862e-09 1.074828e+01 
2.463151e-01 2.999889e+00 2.999906e+00 2.881400e-05 5.210155e-04 3.537958e-03 -3.016943e-03 -1.686862e-09 1.074828e+01 
3.061023e-01 2.996741e+00 2.996718e+00 2.883696e-05 -6.689171e-04 -4.626147e-03 3.957230e-03 -1.686862e-09 1.074828e+01 
3.647051e-01 2.995068e+00 2.995099e+00 2.880575e-05 8.148587e-04 5.823412e-03 -5.008553e-03 -1.686862e-09 1.074828e+01 
4.218971e-01 2.986506e+00 2.986461e+00 2.884973e-05 -9.298183e-04 -7.050886e-03 6.121068e-03 -1.686862e-09 1.074828e+01 
4.774567e-01 2.975204e+00 2.975267e+00 2.878806e-05 9.486985e-04 8.124731e-03 -7.176032e-03 -1.686862e-09 1.074828e+01 
5.311692e-01 2.950924e+00 2.950832e+00 2.887637e-05 -7.384457e-04 -8.534818e-03 7.796372e-03 -1.686862e-09 1.074828e+01 
5.828267e-01 2.916231e+00 2.916361e+00 2.875232e-05 8.254436e-05 7.362794e-03 -7.280249e-03 -1.686862e-09 1.074828e+01 
6.322294e-01 2.859899e+00 2.859722e+00 2.892323e-05 1.261632e-03 -3.054608e-03 4.316240e-03 -1.686862e-09 1.074828e+01 
6.791861e-01 2.784516e+00 2.784737e+00 2.870593e-05 -3.279729e-03 -5.894146e-03 2.614417e-03 -1.686862e-09 1.074828e+01 
7.235151e-01 2.680071e+00 2.679840e+00 2.894837e-05 5.128083e-03 1.934898e-02 -1.422089e-02 -1.686862e-09 1.074828e+01 
7.650450e-01 2.551444e+00 2.551614e+00 2.874520e-05 -4.819484e-03 -3.240424e-02 2.758476e-02 -1.686862e-09 1.074828e+01 
8.036151e-01 2.391045e+00 2.391013e+00 2.882799e-05 8.100192e-04 3.541273e-02 -3.460271e-02 -1.686862e-09 1.074828e+01 
8.390761e-01 2.207699e+00 2.207592e+00 2.889966e-05 4.231330e-03 -2.284341e-02 2.707474e-02 -1.686862e-09 1.074828e+01 
8.712910e-01 1.995525e+00 1.995645e+00 2.877754e-05 -3.749874e-03 5.512644e-03 -9.262518e-03 -1.686862e-09 1.074828e+01 
9.001349e-01 1.767061e+00 1.767044e+00 2.881474e-05 -1.833450e-03 -1.680971e-03 -1.524798e-04 -1.686862e-09 1.074828e+01 
9.254965e-01 1.517995e+00 1.517977e+00 2.884886e-05 1.830426e-03 6.260043e-03 -4.429617e-03 -1.686862e-09 1.074828e+01 
9.472774e-01 1.262904e+00 1.262879e+00 2.885748e-05 1.673390e-03 -3.946823e-03 5.620213e-03 -1.686862e-09 1.074828e+01 
9.653935e-01 9.994819e-01 9.994841e-01 2.884824e-05 1.241709e-03 3.171916e-03 -1.930208e-03 -1.686862e-09 1.074828e+01 
9.797745e-01 7.457483e-01 7.457502e-01 2.884087e-05 6.173265e-06 -3.652369e-03 3.658542e-03 -1.686862e-09 1.074828e+01 
9.903648e-01 5.071792e-01 5.071936e-01 2.883575e-05 3.275403e-04 3.211419e-04 6.398362e-06 -1.686862e-09 1.074828e+01 
9.971226e-01 3.173135e-01 3.173343e-01 2.883423e-05 -5.266628e-04 -5.640739e-03 5.114076e-03 -1.686862e-09 1.074828e+01 
1 2.179686e-01 2.179965e-01 2.883404e-05 1.177490e-03 -2.229263e-03 3.406753e-03 -1.686862e-09 1.074828e+01 
ZONE T="0.004", I=51
-1 2.179759e-01 2.180153e-01 4.080063e-05 -2.825898e-03 3.594329e-03 -6.420227e-03 8.492957e-10 1.037144e+01 
-9.971226e-01 3.046454e-01 3.046738e-01 4.079777e-05 -9.134220e-04 6.478536e-03 -7.391958e-03 8.492957e-10 1.037144e+01 
-9.903648e-01 4.742003e-01 4.742157e-01 4.079254e-05 -1.687233e-03 6.963080e-05 -1.756864e-03 8.492957e-10 1.037144e+01 
-9.797745e-01 6.897869e-01 6.897846e-01 4.078712e-05 -7.526296e-04 3.095753e-03 -3.848383e-03 8.492957e-10 1.037144e+01 
-9.653935e-01 9.232333e-01 9.232322e-01 4.077886e-05 -9.902784e-04 -3.382314e-03 2.392036e-03 8.492957e-10 1.037144e+01 
-9.472774e-01 1.166751e+00 1.166738e+00 4.076735e-05 2.789742e-04 3.126705e-03 -2.847731e-03 8.492957e-10 1.037144e+01 
-9.254965e-01 1.406515e+00 1.406534e+00 4.074613e-05 1.050545e-03 -4.994862e-03 6.045406e-03 8.492957e-10 1.037144e+01 
-9.001349e-01 1.642262e+00 1.642282e+00 4.074137e-05 2.175831e-03 5.369963e-03 -3.194133e-03 8.492957e-10 1.037144e+01 
-8.712910e-01 1.863474e+00 1.863512e+00 4.077464e-05 -1.006843e-03 -1.096924e-03 9.008179e-05 8.492957e-10 1.037144e+01 
-8.390761e-01 2.071696e+00 2.071556e+00 4.083746e-05 -3.758800e-03 7.436165e-03 -1.119497e-02 8.492957e-10 1.037144e+01 
-8.036151e-01 2.257790e+00 2.257908e+00 4.067513e-05 3.735922e-03 -2.527362e-02 2.900954e-02 8.492957e-10 1.037144e+01 
-7.650450e-01 2.424842e+00 2.424875e+00 4.076273e-05 9.338626e-04 3.765775e-02 -3.672388e-02 8.492957e-10 1.037144e+01 
-7.235151e-01 2.565907e+00 2.565720e+00 4.086218e-05 -4.706652e-03 -3.470480e-02 2.999814e-02 8.492957e-10 1.037144e+01 
-6.791861e-01 2.685042e+00 2.685303e+00 4.060445e-05 5.133107e-03 2.142623e-02 -1.629312e-02 8.492957e-10 1.037144e+01 
-6.322294e-01 2.778655e+00 2.778398e+00 4.091650e-05 -3.407103e-03 -7.056695e-03 3.649592e-03 8.492957e-10 1.037144e+01 
-5.828267e-01 2.852244e+00 2.852454e+00 4.062986e-05 1.351896e-03 -3.148303e-03 4.500199e-03 8.492957e-10 1.037144e+01 
-5.311692e-01 2.904540e+00 2.904386e+00 4.085409e-05 1.120070e-04 8.398236e-03 -8.286229e-03 8.492957e-10 1.037144e+01 
-4.774567e-01 2.942685e+00 2.942792e+00 4.069331e-05 -8.707295e-04 -1.008178e-02 9.211049e-03 8.492957e-10 1.037144e+01 
-4.218971e-01 2.966121e+00 2.966050e+00 4.080113e-05 1.129161e-03 9.737172e-03 -8.608011e-03 8.492957e-10 1.037144e+01 
-3.647051e-01 2.982362e+00 2.982409e+00 4.073142e-05 -1.110245e-03 -8.494186e-03 7.383941e-03 8.492957e-10 1.037144e+01 
-3.061023e-01 2.990147e+00 2.990117e+00 4.077389e-05 9.640262e-04 6.945789e-03 -5.981762e-03 8.492957e-10 1.037144e+01 
-2.463151e-01 2.996030e+00 2.996048e+00 4.074944e-05 -7.721091e-04 -5.388472e-03 4.616362e-03 8.492957e-10 1.037144e+01 
-1.855750e-01 2.997417e+00 2.997406e+00 4.076145e-05 5.711041e-04 3.913671e-03 -3.342567e-03 8.492957e-10 1.037144e+01 
-1.241170e-01 2.999639e+00 2.999646e+00 4.075721e-05 -3.748249e-04 -2.543509e-03 2.168684e-03 8.492957e-10 1.037144e+01 
-6.217878e-02 2.999064e+00 2.999060e+00 4.075658e-05 1.852545e-04 1.250428e-03 -1.065174e-03 8.492957e-10 1.037144e+01 
0 3.000259e+00 3.000263e+00 4.075940e-05 -8.222946e-09 -6.009210e-08 5.186896e-08 8.492957e-10 1.037144e+01 
6.217878e-02 2.999064e+00 2.999060e+00 4.075658e-05 -1.852403e-04 -1.250329e-03 1.065089e-03 8.492957e-10 1.037144e+01 
1.241170e-01 2.999639e+00 2.999646e+00 4.075721e-05 3.748200e-04 2.543464e-03 -2.168644e-03 8.492957e-10 1.037144e+01 
1.855750e-01 2.997417e+00 2.997406e+00 4.076144e-05 -5.711019e-04 -3.913654e-03 3.342552e-03 8.492957e-10 1.037144e+01 
2.463151e-01 2.996030e+00 2.996048e+00 4.074943e-05 7.721084e-04 5.388447e-03 -4.616339e-03 8.492957e-10 1.037144e+01 
3.061023e-01 2.990147e+00 2.990117e+00 4.077388e-05 -9.640202e-04 -6.945747e-03 5.981726e-03 8.492957e-10 1.037144e+01 
3.647051e-01 2.982362e+00 2.982409e+00 4.073141e-05 1.110246e-03 8.494157e-03 -7.383912e-03 8.492957e-10 1.037144e+01 
4.218971e-01 2.966121e+00 2.966050e+00 4.080110e-05 -1.129165e-03 -9.737192e-03 8.608027e-03 8.492957e-10 1.037144e+01 
4.774567e-01 2.942685e+00 2.942792e+00 4.069329e-05 8.707350e-04 1.008179e-02 -9.211051e-03 8.492957e-10 1.037144e+01 
5.311692e-01 2.904540e+00 2.904386e+00 4.085406e-05 -1.120166e-04 -8.398256e-03 8.286240e-03 8.492957e-10 1.037144e+01 
5.828267e-01 2.852244e+00 2.852454e+00 4.062983e-05 -1.351856e-03 3.148505e-03 -4.500361e-03 8.492957e-10 1.037144e+01 
6.322294e-01 2.778655e+00 2.778398e+00 4.091646e-05 3.407071e-03 7.056355e-03 -3.649284e-03 8.492957e-10 1.037144e+01 
6.791861e-01 2.685042e+00 2.685303e+00 4.060441e-05 -5.133112e-03 -2.142600e-02 1.629289e-02 8.492957e-10 1.037144e+01 
7.235151e-01 2.565907e+00 2.565720e+00 4.086214e-05 4.706697e-03 3.470484e-02 -2.999814e-02 8.492957e-10 1.037144e+01 
7.650450e-01 2.424842e+00 2.424875e+00 4.076268e-05 -9.338861e-04 -3.765802e-02 3.672413e-02 8.492957e-10 1.037144e+01 
8.036151e-01 2.257790e+00 2.257908e+00 4.067508e-05 -3.735956e-03 2.527394e-02 -2.900989e-02 8.492957e-10 1.037144e+01 
8.390761e-01 2.071696e+00 2.071556e+00 4.083741e-05 3.758898e-03 -7.436364e-03 1.119526e-02 8.492957e-10 1.037144e+01 
8.712910e-01 1.863474e+00 1.863512e+00 4.077458e-05 1.006743e-03 1.096843e-03 -9.009986e-05 8.492957e-10 1.037144e+01 
9.001349e-01 1.642262e+00 1.642282e+00 4.074131e-05 -2.175878e-03 -5.369790e-03 3.193912e-03 8.492957e-10 1.037144e+01 
9.254965e-01 1.406515e+00 1.406534e+00 4.074607e-05 -1.050457e-03 4.994821e-03 -6.045279e-03 8.492957e-10 1.037144e+01 
9.472774e-01 1.166751e+00 1.166738e+00 4.076729e-05 -2.789704e-04 -3.126707e-03 2.847736e-03 8.492957e-10 1.037144e+01 
9.653935e-01 9.232333e-01 9.232322e-01 4.077879e-05 9.902722e-04 3.382307e-03 -2.392035e-03 8.492957e-10 1.037144e+01 
9.797745e-01 6.897869e-01 6.897846e-01 4.078705e-05 7.526389e-04 -3.095757e-03 3.848396e-03 8.492957e-10 1.037144e+01 
9.903648e-01 4.742003e-01 4.742157e-01 4.079248e-05 1.687211e-03 -6.964774e-05 1.756858e-03 8.492957e-10 1.037144e+01 
9.971226e-01 3.046454e-01 3.046738e-01 4.079770e-05 9.133735e-04 -6.478524e-03 7.391898e-03 8.492957e-10 1.037144e+01 
1 2.179759e-01 2.180153e-01 4.080056e-05 2.825883e-03 -3.594322e-03 6.420205e-03 8.492957e-10 1.037144e+01 
ZONE T="0.005", I=51
-1 2.179744e-01 2.180276e-01 5.517465e-05 -1.967186e-03 4.729451e-03 -6.696637e-03 1.928424e-09 1.003950e+01 
-9.971226e-01 2.959197e-01 2.959618e-01 5.516915e-05 3.726883e-04 7.792706e-03 -7.420018e-03 1.928424e-09 1.003950e+01 
-9.903648e-01 4.509052e-01 4.509340e-01 5.515862e-05 -5.654743e-04 1.286595e-03 -1.852070e-03 1.928424e-09 1.003950e+01 
-9.797745e-01 6.499505e-01 6.499625e-01 5.514734e-05 6.016426e-04 4.090505e-03 -3.488863e-03 1.928424e-09 1.003950e+01 
-9.653935e-01 8.682325e-01 8.682472e-01 5.513633e-05 1.989217e-04 -2.302214e-03 2.501136e-03 1.928424e-09 1.003950e+01 
-9.472774e-01 1.096965e+00 1.096970e+00 5.513073e-05 1.185118e-03 4.058336e-03 -2.873217e-03 1.928424e-09 1.003950e+01 
-9.254965e-01 1.324640e+00 1.324665e+00 5.513060e-05 5.035780e-04 -3.544119e-03 4.047697e-03 1.928424e-09 1.003950e+01 
-9.001349e-01 1.549699e+00 1.549693e+00 5.515467e-05 -5.509105e-05 6.132638e-03 -6.187729e-03 1.928424e-09 1.003950e+01 
-8.712910e-01 1.763848e+00 1.763833e+00 5.517749e-05 -2.420239e-03 -4.014268e-03 1.594029e-03 1.928424e-09 1.003950e+01 
-8.390761e-01 1.967260e+00 1.967184e+00 5.515479e-05 -1.788528e-04 1.425837e-03 -1.604690e-03 1.928424e-09 1.003950e+01 
-8.036151e-01 2.152884e+00 2.153052e+00 5.503427e-05 4.089322e-03 -1.195133e-02 1.604065e-02 1.928424e-09 1.003950e+01 
-7.650450e-01 2.322297e+00 2.322187e+00 5.523553e-05 -2.832270e-03 3.094556e-02 -3.377783e-02 1.928424e-09 1.003950e+01 
-7.235151e-01 2.469655e+00 2.469590e+00 5.515711e-05 -1.883082e-03 -4.134370e-02 3.946061e-02 1.928424e-09 1.003950e+01 
-6.791861e-01 2.597487e+00 2.597717e+00 5.499817e-05 5.133447e-03 3.611868e-02 -3.098524e-02 1.928424e-09 1.003950e+01 
-6.322294e-01 2.702719e+00 2.702415e+00 5.533660e-05 -5.175338e-03 -2.128662e-02 1.611128e-02 1.928424e-09 1.003950e+01 
-5.828267e-01 2.788476e+00 2.788769e+00 5.494089e-05 3.280202e-03 5.912362e-03 -2.632160e-03 1.928424e-09 1.003950e+01 
-5.311692e-01 2.854118e+00 2.853880e+00 5.529550e-05 -1.149370e-03 4.909854e-03 -6.059225e-03 1.928424e-09 1.003950e+01 
-4.774567e-01 2.904104e+00 2.904276e+00 5.502259e-05 -3.570915e-04 -1.049380e-02 1.013671e-02 1.928424e-09 1.003950e+01 
-4.218971e-01 2.938733e+00 2.938617e+00 5.521031e-05 1.130162e-03 1.216929e-02 -1.103912e-02 1.928424e-09 1.003950e+01 
-3.647051e-01 2.963453e+00 2.963526e+00 5.509181e-05 -1.370093e-03 -1.159485e-02 1.022476e-02 1.928424e-09 1.003950e+01 
-3.061023e-01 2.978312e+00 2.978269e+00 5.515857e-05 1.305348e-03 9.944028e-03 -8.638680e-03 1.928424e-09 1.003950e+01 
-2.463151e-01 2.988611e+00 2.988633e+00 5.512725e-05 -1.095935e-03 -7.917812e-03 6.821877e-03 1.928424e-09 1.003950e+01 
-1.855750e-01 2.993419e+00 2.993410e+00 5.513444e-05 8.309619e-04 5.833324e-03 -5.002362e-03 1.928424e-09 1.003950e+01 
-1.241170e-01 2.997174e+00 2.997175e+00 5.514246e-05 -5.522474e-04 -3.818517e-03 3.266269e-03 1.928424e-09 1.003950e+01 
-6.217878e-02 2.997863e+00 2.997866e+00 5.512522e-05 2.745611e-04 1.883891e-03 -1.609330e-03 1.928424e-09 1.003950e+01 
0 2.999038e+00 2.999033e+00 5.514664e-05 -1.479874e-08 -1.035635e-07 8.876483e-08 1.928424e-09 1.003950e+01 
6.217878e-02 2.997863e+00 2.997866e+00 5.512521e-05 -2.745336e-04 -1.883721e-03 1.609187e-03 1.928424e-09 1.003950e+01 
1.241170e-01 2.997174e+00 2.997175e+00 5.514245e-05 5.522370e-04 3.818434e-03 -3.266197e-03 1.928424e-09 1.003950e+01 
1.855750e-01 2.993419e+00 2.993410e+00 5.513443e-05 -8.309569e-04 -5.833302e-03 5.002345e-03 1.928424e-09 1.003950e+01 
2.463151e-01 2.988611e+00 2.988633e+00 5.512723e-05 1.095937e-03 7.917801e-03 -6.821864e-03 1.928424e-09 1.003950e+01 
3.061023e-01 2.978312e+00 2.978269e+00 5.515855e-05 -1.305345e-03 -9.944013e-03 8.638668e-03 1.928424e-09 1.003950e+01 
3.647051e-01 2.963453e+00 2.963526e+00 5.509178e-05 1.370100e-03 1.159486e-02 -1.022476e-02 1.928424e-09 1.003950e+01 
4.218971e-01 2.938733e+00 2.938617e+00 5.521027e-05 -1.130168e-03 -1.216934e-02 1.103917e-02 1.928424e-09 1.003950e+01 
4.774567e-01 2.904104e+00 2.904276e+00 5.502254e-05 3.570988e-04 1.049382e-02 -1.013672e-02 1.928424e-09 1.003950e+01 
5.311692e-01 2.854118e+00 2.853880e+00 5.529544e-05 1.149362e-03 -4.909884e-03 6.059246e-03 1.928424e-09 1.003950e+01 
5.828267e-01 2.788476e+00 2.788769e+00 5.494083e-05 -3.280167e-03 -5.912172e-03 2.632005e-03 1.928424e-09 1.003950e+01 
6.322294e-01 2.702719e+00 2.702415e+00 5.533653e-05 5.175322e-03 2.128633e-02 -1.611101e-02 1.928424e-09 1.003950e+01 
6.791861e-01 2.597487e+00 2.597717e+00 5.499809e-05 -5.133467e-03 -3.611854e-02 3.098508e-02 1.928424e-09 1.003950e+01 
7.235151e-01 2.469655e+00 2.469590e+00 5.515703e-05 1.883118e-03 4.134381e-02 -3.946069e-02 1.928424e-09 1.003950e+01 
7.650450e-01 2.322297e+00 2.322187e+00 5.523544e-05 2.832282e-03 -3.094576e-02 3.377805e-02 1.928424e-09 1.003950e+01 
8.036151e-01 2.152884e+00 2.153052e+00 5.503418e-05 -4.089364e-03 1.195144e-02 -1.604081e-02 1.928424e-09 1.003950e+01 
8.390761e-01 1.967260e+00 1.967184e+00 5.515469e-05 1.788927e-04 -1.425838e-03 1.604731e-03 1.928424e-09 1.003950e+01 
8.712910e-01 1.763848e+00 1.763833e+00 5.517739e-05 2.420239e-03 4.014214e-03 -1.593975e-03 1.928424e-09 1.003950e+01 
9.001349e-01 1.549699e+00 1.549693e+00 5.515457e-05 5.507682e-05 -6.132655e-03 6.187731e-03 1.928424e-09 1.003950e+01 