TITLE = "2 species of PNP-Steric with high order term" 
VARIABLES = "X" "Conc1" "Conc2" "phi" "Current_x""I_ext" "I_PNP" "CURRENT" "ENERGY" "
ZONE T="6.8142e-07", I=51
-1 -5.716743e+00 -5.718404e+00 -1.000000e-04 -2.036554e-12 0 -2.036554e-12 -6.485608e-15 1.318335e+01 
-9.980267e-01 1.505794e+00 1.505510e+00 -1.000000e-04 -5.694561e-13 0 -5.694561e-13 -6.485608e-15 1.318335e+01 
-9.921147e-01 3.536837e+00 3.536939e+00 -1.000000e-04 2.387419e-13 0 2.387419e-13 -6.485608e-15 1.318335e+01 
-9.822873e-01 2.714427e+00 2.714372e+00 -1.000000e-04 -1.185323e-13 0 -1.185323e-13 -6.485608e-15 1.318335e+01 
-9.685832e-01 3.178782e+00 3.178816e+00 -1.000000e-04 8.249510e-14 0 8.249510e-14 -6.485608e-15 1.318335e+01 
-9.510565e-01 2.877758e+00 2.877734e+00 -1.000000e-04 -6.926607e-14 0 -6.926607e-14 -6.485608e-15 1.318335e+01 
-9.297765e-01 3.088230e+00 3.088246e+00 -1.000000e-04 6.653157e-14 0 6.653157e-14 -6.485608e-15 1.318335e+01 
-9.048271e-01 2.934019e+00 2.934007e+00 -1.000000e-04 -7.217536e-14 0 -7.217536e-14 -6.485608e-15 1.318335e+01 
-8.763067e-01 3.050542e+00 3.050551e+00 -1.000000e-04 9.094420e-14 0 9.094420e-14 -6.485608e-15 1.318335e+01 
-8.443279e-01 2.960649e+00 2.960642e+00 -1.000000e-04 -1.536433e-13 0 -1.536433e-13 -6.485608e-15 1.318335e+01 
-8.090170e-01 3.030964e+00 3.030970e+00 -1.000000e-04 2.761949e-14 0 2.761949e-14 -6.485608e-15 1.318335e+01 
-7.705132e-01 2.975485e+00 2.975480e+00 -1.000000e-04 5.282951e-14 0 5.282951e-14 -6.485608e-15 1.318335e+01 
-7.289686e-01 3.019454e+00 3.019458e+00 -1.000000e-04 -1.370945e-13 0 -1.370945e-13 -6.485608e-15 1.318335e+01 
-6.845471e-01 2.984580e+00 2.984577e+00 -1.000000e-04 3.779618e-14 0 3.779618e-14 -6.485608e-15 1.318335e+01 
-6.374240e-01 3.012165e+00 3.012167e+00 -1.000000e-04 -2.852345e-14 0 -2.852345e-14 -6.485608e-15 1.318335e+01 
-5.877853e-01 2.990484e+00 2.990482e+00 -1.000000e-04 2.047846e-14 0 2.047846e-14 -6.485608e-15 1.318335e+01 
-5.358268e-01 3.007348e+00 3.007350e+00 -1.000000e-04 -1.415454e-14 0 -1.415454e-14 -6.485608e-15 1.318335e+01 
-4.817537e-01 2.994428e+00 2.994427e+00 -1.000000e-04 8.139966e-15 0 8.139966e-15 -6.485608e-15 1.318335e+01 
-4.257793e-01 3.004118e+00 3.004119e+00 -1.000000e-04 -7.476165e-16 0 -7.476165e-16 -6.485608e-15 1.318335e+01 
-3.681246e-01 2.997063e+00 2.997063e+00 -1.000000e-04 -4.548244e-14 0 -4.548244e-14 -6.485608e-15 1.318335e+01 
-3.090170e-01 3.001990e+00 3.001990e+00 -1.000000e-04 -1.037697e-13 0 -1.037697e-13 -6.485608e-15 1.318335e+01 
-2.486899e-01 2.998752e+00 2.998751e+00 -1.000000e-04 1.460112e-14 0 1.460112e-14 -6.485608e-15 1.318335e+01 
-1.873813e-01 3.000692e+00 3.000692e+00 -1.000000e-04 -5.882476e-15 0 -5.882476e-15 -6.485608e-15 1.318335e+01 
-1.253332e-01 2.999696e+00 2.999696e+00 -1.000000e-04 6.831987e-15 0 6.831987e-15 -6.485608e-15 1.318335e+01 
-6.279052e-02 3.000076e+00 3.000076e+00 -1.000000e-04 -4.003388e-15 0 -4.003388e-15 -6.485608e-15 1.318335e+01 
-1.110223e-16 3 3 -1.000000e-04 -1.897243e-15 0 -1.897243e-15 -6.485608e-15 1.318335e+01 
6.279052e-02 3.000076e+00 3.000076e+00 -1.000000e-04 1.729507e-14 0 1.729507e-14 -6.485608e-15 1.318335e+01 
1.253332e-01 2.999696e+00 2.999696e+00 -1.000000e-04 -9.660487e-15 0 -9.660487e-15 -6.485608e-15 1.318335e+01 
1.873813e-01 3.000692e+00 3.000692e+00 -1.000000e-04 -2.278745e-14 0 -2.278745e-14 -6.485608e-15 1.318335e+01 
2.486899e-01 2.998752e+00 2.998751e+00 -1.000000e-04 5.093315e-14 0 5.093315e-14 -6.485608e-15 1.318335e+01 
3.090170e-01 3.001990e+00 3.001990e+00 -1.000000e-04 -1.215143e-13 0 -1.215143e-13 -6.485608e-15 1.318335e+01 
3.681246e-01 2.997063e+00 2.997063e+00 -1.000000e-04 5.755639e-14 0 5.755639e-14 -6.485608e-15 1.318335e+01 
4.257793e-01 3.004118e+00 3.004119e+00 -1.000000e-04 -3.956383e-14 0 -3.956383e-14 -6.485608e-15 1.318335e+01 
4.817537e-01 2.994428e+00 2.994427e+00 -1.000000e-04 7.848996e-14 0 7.848996e-14 -6.485608e-15 1.318335e+01 
5.358268e-01 3.007348e+00 3.007350e+00 -1.000000e-04 1.934090e-14 0 1.934090e-14 -6.485608e-15 1.318335e+01 
5.877853e-01 2.990484e+00 2.990482e+00 -1.000000e-04 1.379881e-14 0 1.379881e-14 -6.485608e-15 1.318335e+01 
6.374240e-01 3.012165e+00 3.012167e+00 -1.000000e-04 -2.940561e-14 0 -2.940561e-14 -6.485608e-15 1.318335e+01 
6.845471e-01 2.984580e+00 2.984577e+00 -1.000000e-04 4.604739e-14 0 4.604739e-14 -6.485608e-15 1.318335e+01 
7.289686e-01 3.019454e+00 3.019458e+00 -1.000000e-04 -7.677899e-14 0 -7.677899e-14 -6.485608e-15 1.318335e+01 
7.705132e-01 2.975485e+00 2.975480e+00 -1.000000e-04 1.352043e-13 0 1.352043e-13 -6.485608e-15 1.318335e+01 
8.090170e-01 3.030964e+00 3.030970e+00 -1.000000e-04 5.940973e-14 0 5.940973e-14 -6.485608e-15 1.318335e+01 
8.443279e-01 2.960649e+00 2.960642e+00 -1.000000e-04 -8.096652e-14 0 -8.096652e-14 -6.485608e-15 1.318335e+01 
8.763067e-01 3.050542e+00 3.050551e+00 -1.000000e-04 5.715221e-14 0 5.715221e-14 -6.485608e-15 1.318335e+01 
9.048271e-01 2.934019e+00 2.934007e+00 -1.000000e-04 -3.165210e-14 0 -3.165210e-14 -6.485608e-15 1.318335e+01 
9.297765e-01 3.088230e+00 3.088246e+00 -1.000000e-04 1.814141e-14 0 1.814141e-14 -6.485608e-15 1.318335e+01 
9.510565e-01 2.877758e+00 2.877734e+00 -1.000000e-04 -1.174501e-14 0 -1.174501e-14 -6.485608e-15 1.318335e+01 
9.685832e-01 3.178782e+00 3.178816e+00 -1.000000e-04 4.184536e-14 0 4.184536e-14 -6.485608e-15 1.318335e+01 
9.822873e-01 2.714427e+00 2.714372e+00 -1.000000e-04 3.577675e-13 0 3.577675e-13 -6.485608e-15 1.318335e+01 
9.921147e-01 3.536837e+00 3.536939e+00 -1.000000e-04 -3.683168e-13 0 -3.683168e-13 -6.485608e-15 1.318335e+01 
9.980267e-01 1.505794e+00 1.505510e+00 -1.000000e-04 1.798121e-13 0 1.798121e-13 -6.485608e-15 1.318335e+01 
1 -5.716743e+00 -5.718404e+00 -1.000000e-04 2.294225e-12 0 2.294225e-12 -6.485608e-15 1.318335e+01 
ZONE T="1.3628e-06", I=51
-1 1.144994e+01 1.145729e+01 -9.973936e-05 9.407611e+00 0 9.407611e+00 1.029645e-14 1.311562e+01 
-9.980267e-01 3.991918e+00 3.992857e+00 -9.973936e-05 -1.517500e-01 0 -1.517500e-01 1.029645e-14 1.311562e+01 
-9.921147e-01 2.549214e+00 2.548803e+00 -9.973936e-05 3.711917e-01 0 3.711917e-01 1.029645e-14 1.311562e+01 
-9.822873e-01 3.240068e+00 3.240294e+00 -9.973936e-05 -1.112500e-01 0 -1.112500e-01 1.029645e-14 1.311562e+01 
-9.685832e-01 2.843192e+00 2.843045e+00 -9.973936e-05 8.466598e-02 0 8.466598e-02 1.029645e-14 1.311562e+01 
-9.510565e-01 3.109023e+00 3.109125e+00 -9.973936e-05 -4.655045e-02 0 -4.655045e-02 1.029645e-14 1.311562e+01 
-9.297765e-01 2.920737e+00 2.920663e+00 -9.973936e-05 3.672827e-02 0 3.672827e-02 1.029645e-14 1.311562e+01 
-9.048271e-01 3.058876e+00 3.058932e+00 -9.973936e-05 -2.478845e-02 0 -2.478845e-02 1.029645e-14 1.311562e+01 
-8.763067e-01 2.955680e+00 2.955638e+00 -9.973936e-05 2.021009e-02 0 2.021009e-02 1.029645e-14 1.311562e+01 
-8.443279e-01 3.033457e+00 3.033489e+00 -9.973936e-05 -1.506921e-02 0 -1.506921e-02 1.029645e-14 1.311562e+01 
-8.090170e-01 2.974853e+00 2.974828e+00 -9.973936e-05 1.255579e-02 0 1.255579e-02 1.029645e-14 1.311562e+01 
-7.705132e-01 3.018629e+00 3.018647e+00 -9.973936e-05 -9.900656e-03 0 -9.900656e-03 1.029645e-14 1.311562e+01 
-7.289686e-01 2.986564e+00 2.986550e+00 -9.973936e-05 8.357469e-03 0 8.357469e-03 1.029645e-14 1.311562e+01 
-6.845471e-01 3.009238e+00 3.009248e+00 -9.973936e-05 -6.807582e-03 0 -6.807582e-03 1.029645e-14 1.311562e+01 
-6.374240e-01 2.994188e+00 2.994180e+00 -9.973936e-05 5.778226e-03 0 5.778226e-03 1.029645e-14 1.311562e+01 
-5.877853e-01 3.002996e+00 3.003001e+00 -9.973936e-05 -4.785093e-03 0 -4.785093e-03 1.029645e-14 1.311562e+01 
-5.358268e-01 2.999327e+00 2.999324e+00 -9.973936e-05 4.050843e-03 0 4.050843e-03 1.029645e-14 1.311562e+01 
-4.817537e-01 2.998754e+00 2.998755e+00 -9.973936e-05 -3.361862e-03 0 -3.361862e-03 1.029645e-14 1.311562e+01 
-4.257793e-01 3.002826e+00 3.002826e+00 -9.973936e-05 2.805917e-03 0 2.805917e-03 1.029645e-14 1.311562e+01 
-3.681246e-01 2.995883e+00 2.995882e+00 -9.973936e-05 -2.290912e-03 0 -2.290912e-03 1.029645e-14 1.311562e+01 
-3.090170e-01 3.005156e+00 3.005157e+00 -9.973936e-05 1.844756e-03 0 1.844756e-03 1.029645e-14 1.311562e+01 
-2.486899e-01 2.994028e+00 2.994026e+00 -9.973936e-05 -1.429779e-03 0 -1.429779e-03 1.029645e-14 1.311562e+01 
-1.873813e-01 3.006586e+00 3.006590e+00 -9.973936e-05 1.049167e-03 0 1.049167e-03 1.029645e-14 1.311562e+01 
-1.253332e-01 2.992985e+00 2.992981e+00 -9.973936e-05 -6.877938e-04 0 -6.877938e-04 1.029645e-14 1.311562e+01 
-6.279052e-02 3.007268e+00 3.007272e+00 -9.973936e-05 3.406562e-04 0 3.406562e-04 1.029645e-14 1.311562e+01 
-1.110223e-16 2.992648e+00 2.992644e+00 -9.973936e-05 4.689582e-14 0 4.689582e-14 1.029645e-14 1.311562e+01 
6.279052e-02 3.007268e+00 3.007272e+00 -9.973936e-05 -3.406562e-04 0 -3.406562e-04 1.029645e-14 1.311562e+01 
1.253332e-01 2.992985e+00 2.992981e+00 -9.973936e-05 6.877938e-04 0 6.877938e-04 1.029645e-14 1.311562e+01 
1.873813e-01 3.006586e+00 3.006590e+00 -9.973936e-05 -1.049167e-03 0 -1.049167e-03 1.029645e-14 1.311562e+01 
2.486899e-01 2.994028e+00 2.994026e+00 -9.973936e-05 1.429779e-03 0 1.429779e-03 1.029645e-14 1.311562e+01 
3.090170e-01 3.005156e+00 3.005157e+00 -9.973936e-05 -1.844756e-03 0 -1.844756e-03 1.029645e-14 1.311562e+01 
3.681246e-01 2.995883e+00 2.995882e+00 -9.973936e-05 2.290912e-03 0 2.290912e-03 1.029645e-14 1.311562e+01 
4.257793e-01 3.002826e+00 3.002826e+00 -9.973936e-05 -2.805917e-03 0 -2.805917e-03 1.029645e-14 1.311562e+01 
4.817537e-01 2.998754e+00 2.998755e+00 -9.973936e-05 3.361862e-03 0 3.361862e-03 1.029645e-14 1.311562e+01 
5.358268e-01 2.999327e+00 2.999324e+00 -9.973936e-05 -4.050843e-03 0 -4.050843e-03 1.029645e-14 1.311562e+01 
5.877853e-01 3.002996e+00 3.003001e+00 -9.973936e-05 4.785093e-03 0 4.785093e-03 1.029645e-14 1.311562e+01 
6.374240e-01 2.994188e+00 2.994180e+00 -9.973936e-05 -5.778226e-03 0 -5.778226e-03 1.029645e-14 1.311562e+01 
6.845471e-01 3.009238e+00 3.009248e+00 -9.973936e-05 6.807582e-03 0 6.807582e-03 1.029645e-14 1.311562e+01 
7.289686e-01 2.986564e+00 2.986550e+00 -9.973936e-05 -8.357469e-03 0 -8.357469e-03 1.029645e-14 1.311562e+01 
7.705132e-01 3.018629e+00 3.018647e+00 -9.973936e-05 9.900656e-03 0 9.900656e-03 1.029645e-14 1.311562e+01 
8.090170e-01 2.974853e+00 2.974828e+00 -9.973936e-05 -1.255579e-02 0 -1.255579e-02 1.029645e-14 1.311562e+01 
8.443279e-01 3.033457e+00 3.033489e+00 -9.973936e-05 1.506921e-02 0 1.506921e-02 1.029645e-14 1.311562e+01 
8.763067e-01 2.955680e+00 2.955638e+00 -9.973936e-05 -2.021009e-02 0 -2.021009e-02 1.029645e-14 1.311562e+01 
9.048271e-01 3.058876e+00 3.058932e+00 -9.973936e-05 2.478845e-02 0 2.478845e-02 1.029645e-14 1.311562e+01 
9.297765e-01 2.920737e+00 2.920663e+00 -9.973936e-05 -3.672827e-02 0 -3.672827e-02 1.029645e-14 1.311562e+01 
9.510565e-01 3.109023e+00 3.109125e+00 -9.973936e-05 4.655045e-02 0 4.655045e-02 1.029645e-14 1.311562e+01 
9.685832e-01 2.843192e+00 2.843045e+00 -9.973936e-05 -8.466598e-02 0 -8.466598e-02 1.029645e-14 1.311562e+01 
9.822873e-01 3.240068e+00 3.240294e+00 -9.973936e-05 1.112500e-01 0 1.112500e-01 1.029645e-14 1.311562e+01 
9.921147e-01 2.549214e+00 2.548803e+00 -9.973936e-05 -3.711917e-01 0 -3.711917e-01 1.029645e-14 1.311562e+01 
9.980267e-01 3.991918e+00 3.992857e+00 -9.973936e-05 1.517500e-01 0 1.517500e-01 1.029645e-14 1.311562e+01 
1 1.144994e+01 1.145729e+01 -9.973936e-05 -9.407611e+00 0 -9.407611e+00 1.029645e-14 1.311562e+01 
ZONE T="2.0442e-06", I=51
-1 -1.155124e+01 -1.158848e+01 -1.009448e-04 -1.684868e+01 0 -1.684868e+01 -2.844773e-14 1.316359e+01 
-9.980267e-01 1.123903e+00 1.117849e+00 -1.009398e-04 -1.483195e+00 0 -1.483195e+00 -2.844773e-14 1.316359e+01 
-9.921147e-01 3.992026e+00 3.994346e+00 -1.009444e-04 -9.355999e-02 0 -9.355999e-02 -2.844773e-14 1.316359e+01 
-9.822873e-01 2.450458e+00 2.449215e+00 -1.009381e-04 3.459625e-02 0 3.459625e-02 -2.844773e-14 1.316359e+01 
-9.685832e-01 3.347041e+00 3.347820e+00 -1.009441e-04 -4.788356e-02 0 -4.788356e-02 -2.844773e-14 1.316359e+01 
-9.510565e-01 2.761847e+00 2.761314e+00 -1.009379e-04 3.713774e-02 0 3.713774e-02 -2.844773e-14 1.316359e+01 
-9.297765e-01 3.172110e+00 3.172494e+00 -1.009440e-04 -2.918225e-02 0 -2.918225e-02 -2.844773e-14 1.316359e+01 
-9.048271e-01 2.871051e+00 2.870764e+00 -1.009378e-04 2.364825e-02 0 2.364825e-02 -2.844773e-14 1.316359e+01 
-8.763067e-01 3.098975e+00 3.099195e+00 -1.009440e-04 -1.869886e-02 0 -1.869886e-02 -2.844773e-14 1.316359e+01 
-8.443279e-01 2.922709e+00 2.922538e+00 -1.009378e-04 1.552421e-02 0 1.552421e-02 -2.844773e-14 1.316359e+01 
-8.090170e-01 3.061051e+00 3.061186e+00 -1.009440e-04 -1.263324e-02 0 -1.263324e-02 -2.844773e-14 1.316359e+01 
-7.705132e-01 2.951416e+00 2.951309e+00 -1.009378e-04 1.064529e-02 0 1.064529e-02 -2.844773e-14 1.316359e+01 
-7.289686e-01 3.038810e+00 3.038894e+00 -1.009440e-04 -8.856938e-03 0 -8.856938e-03 -2.844773e-14 1.316359e+01 
-6.845471e-01 2.968972e+00 2.968905e+00 -1.009378e-04 7.519357e-03 0 7.519357e-03 -2.844773e-14 1.316359e+01 
-6.374240e-01 3.024755e+00 3.024807e+00 -1.009440e-04 -6.337365e-03 0 -6.337365e-03 -2.844773e-14 1.316359e+01 
-5.877853e-01 2.980346e+00 2.980305e+00 -1.009377e-04 5.381727e-03 0 5.381727e-03 -2.844773e-14 1.316359e+01 
-5.358268e-01 3.015484e+00 3.015515e+00 -1.009440e-04 -4.548461e-03 0 -4.548461e-03 -2.844773e-14 1.316359e+01 
-4.817537e-01 2.987932e+00 2.987908e+00 -1.009377e-04 3.828381e-03 0 3.828381e-03 -2.844773e-14 1.316359e+01 
-4.257793e-01 3.009275e+00 3.009292e+00 -1.009440e-04 -3.202098e-03 0 -3.202098e-03 -2.844773e-14 1.316359e+01 
-3.681246e-01 2.992994e+00 2.992982e+00 -1.009377e-04 2.631172e-03 0 2.631172e-03 -2.844773e-14 1.316359e+01 
-3.090170e-01 3.005189e+00 3.005196e+00 -1.009440e-04 -2.128322e-03 0 -2.128322e-03 -2.844773e-14 1.316359e+01 
-2.486899e-01 2.996234e+00 2.996230e+00 -1.009377e-04 1.651321e-03 0 1.651321e-03 -2.844773e-14 1.316359e+01 
-1.873813e-01 3.002698e+00 3.002700e+00 -1.009440e-04 -1.218644e-03 0 -1.218644e-03 -2.844773e-14 1.316359e+01 
-1.253332e-01 2.998045e+00 2.998045e+00 -1.009377e-04 7.968814e-04 0 7.968814e-04 -2.844773e-14 1.316359e+01 
-6.279052e-02 3.001516e+00 3.001515e+00 -1.009440e-04 -3.969662e-04 0 -3.969662e-04 -2.844773e-14 1.316359e+01 
-1.110223e-16 2.998629e+00 2.998630e+00 -1.009377e-04 -7.931475e-14 0 -7.931475e-14 -2.844773e-14 1.316359e+01 
6.279052e-02 3.001516e+00 3.001515e+00 -1.009440e-04 3.969662e-04 0 3.969662e-04 -2.844773e-14 1.316359e+01 
1.253332e-01 2.998045e+00 2.998045e+00 -1.009377e-04 -7.968814e-04 0 -7.968814e-04 -2.844773e-14 1.316359e+01 
1.873813e-01 3.002698e+00 3.002700e+00 -1.009440e-04 1.218644e-03 0 1.218644e-03 -2.844773e-14 1.316359e+01 
2.486899e-01 2.996234e+00 2.996230e+00 -1.009377e-04 -1.651321e-03 0 -1.651321e-03 -2.844773e-14 1.316359e+01 
3.090170e-01 3.005189e+00 3.005196e+00 -1.009440e-04 2.128322e-03 0 2.128322e-03 -2.844773e-14 1.316359e+01 
3.681246e-01 2.992994e+00 2.992982e+00 -1.009377e-04 -2.631172e-03 0 -2.631172e-03 -2.844773e-14 1.316359e+01 
4.257793e-01 3.009275e+00 3.009292e+00 -1.009440e-04 3.202098e-03 0 3.202098e-03 -2.844773e-14 1.316359e+01 
4.817537e-01 2.987932e+00 2.987908e+00 -1.009377e-04 -3.828381e-03 0 -3.828381e-03 -2.844773e-14 1.316359e+01 
5.358268e-01 3.015484e+00 3.015515e+00 -1.009440e-04 4.548461e-03 0 4.548461e-03 -2.844773e-14 1.316359e+01 
5.877853e-01 2.980346e+00 2.980305e+00 -1.009377e-04 -5.381727e-03 0 -5.381727e-03 -2.844773e-14 1.316359e+01 
6.374240e-01 3.024755e+00 3.024807e+00 -1.009440e-04 6.337365e-03 0 6.337365e-03 -2.844773e-14 1.316359e+01 
6.845471e-01 2.968972e+00 2.968905e+00 -1.009378e-04 -7.519357e-03 0 -7.519357e-03 -2.844773e-14 1.316359e+01 
7.289686e-01 3.038810e+00 3.038894e+00 -1.009440e-04 8.856938e-03 0 8.856938e-03 -2.844773e-14 1.316359e+01 
7.705132e-01 2.951416e+00 2.951309e+00 -1.009378e-04 -1.064529e-02 0 -1.064529e-02 -2.844773e-14 1.316359e+01 
8.090170e-01 3.061051e+00 3.061186e+00 -1.009440e-04 1.263324e-02 0 1.263324e-02 -2.844773e-14 1.316359e+01 
8.443279e-01 2.922709e+00 2.922538e+00 -1.009378e-04 -1.552421e-02 0 -1.552421e-02 -2.844773e-14 1.316359e+01 
8.763067e-01 3.098975e+00 3.099195e+00 -1.009440e-04 1.869886e-02 0 1.869886e-02 -2.844773e-14 1.316359e+01 
9.048271e-01 2.871051e+00 2.870764e+00 -1.009378e-04 -2.364825e-02 0 -2.364825e-02 -2.844773e-14 1.316359e+01 
9.297765e-01 3.172110e+00 3.172494e+00 -1.009440e-04 2.918225e-02 0 2.918225e-02 -2.844773e-14 1.316359e+01 
9.510565e-01 2.761847e+00 2.761314e+00 -1.009379e-04 -3.713774e-02 0 -3.713774e-02 -2.844773e-14 1.316359e+01 
9.685832e-01 3.347041e+00 3.347820e+00 -1.009441e-04 4.788356e-02 0 4.788356e-02 -2.844773e-14 1.316359e+01 
9.822873e-01 2.450458e+00 2.449215e+00 -1.009381e-04 -3.459625e-02 0 -3.459625e-02 -2.844773e-14 1.316359e+01 
9.921147e-01 3.992026e+00 3.994346e+00 -1.009444e-04 9.355999e-02 0 9.355999e-02 -2.844773e-14 1.316359e+01 
9.980267e-01 1.123903e+00 1.117849e+00 -1.009398e-04 1.483195e+00 0 1.483195e+00 -2.844773e-14 1.316359e+01 
1 -1.155124e+01 -1.158848e+01 -1.009448e-04 1.684868e+01 0 1.684868e+01 -2.844773e-14 1.316359e+01 
ZONE T="2.7257e-06", I=51
-1 3.983392e+02 3.988123e+02 -9.442681e-05 1.023461e+02 0 1.023461e+02 9.005297e-14 1.099998e+01 
-9.980267e-01 7.021628e+01 7.029372e+01 -9.443231e-05 6.545040e+00 0 6.545040e+00 9.005297e-14 1.099998e+01 
-9.921147e-01 -2.109019e+01 -2.111910e+01 -9.443157e-05 -3.452920e-01 0 -3.452920e-01 9.005297e-14 1.099998e+01 
-9.822873e-01 1.586379e+01 1.587931e+01 -9.443271e-05 1.347935e-01 0 1.347935e-01 9.005297e-14 1.099998e+01 
-9.685832e-01 -5.063570e+00 -5.073330e+00 -9.443126e-05 -5.859657e-02 0 -5.859657e-02 9.005297e-14 1.099998e+01 
-9.510565e-01 8.519755e+00 8.526445e+00 -9.443273e-05 -1.209536e-02 0 -1.209536e-02 9.005297e-14 1.099998e+01 
-9.297765e-01 -9.848064e-01 -9.896389e-01 -9.443108e-05 1.973624e-02 0 1.973624e-02 9.005297e-14 1.099998e+01 
-9.048271e-01 5.979559e+00 5.983173e+00 -9.443272e-05 -2.904939e-02 0 -2.904939e-02 9.005297e-14 1.099998e+01 
-8.763067e-01 7.190824e-01 7.163171e-01 -9.443100e-05 3.083075e-02 0 3.083075e-02 9.005297e-14 1.099998e+01 
-8.443279e-01 4.774009e+00 4.776158e+00 -9.443272e-05 -2.724234e-02 0 -2.724234e-02 9.005297e-14 1.099998e+01 
-8.090170e-01 1.606218e+00 1.604532e+00 -9.443096e-05 2.637967e-02 0 2.637967e-02 9.005297e-14 1.099998e+01 
-7.705132e-01 4.101174e+00 4.102505e+00 -9.443272e-05 -2.198335e-02 0 -2.198335e-02 9.005297e-14 1.099998e+01 
-7.289686e-01 2.128590e+00 2.127539e+00 -9.443093e-05 2.036330e-02 0 2.036330e-02 9.005297e-14 1.099998e+01 
-6.845471e-01 3.688144e+00 3.688971e+00 -9.443272e-05 -1.695178e-02 0 -1.695178e-02 9.005297e-14 1.099998e+01 
-6.374240e-01 2.459790e+00 2.459144e+00 -9.443092e-05 1.527118e-02 0 1.527118e-02 9.005297e-14 1.099998e+01 
-5.877853e-01 3.419769e+00 3.420269e+00 -9.443272e-05 -1.278102e-02 0 -1.278102e-02 9.005297e-14 1.099998e+01 
-5.358268e-01 2.678810e+00 2.678431e+00 -9.443091e-05 1.124366e-02 0 1.124366e-02 9.005297e-14 1.099998e+01 
-4.817537e-01 3.240351e+00 3.240632e+00 -9.443273e-05 -9.393742e-03 0 -9.393742e-03 9.005297e-14 1.099998e+01 
-4.257793e-01 2.825808e+00 2.825608e+00 -9.443091e-05 8.033193e-03 0 8.033193e-03 9.005297e-14 1.099998e+01 
-3.681246e-01 3.120419e+00 3.120553e+00 -9.443273e-05 -6.592291e-03 0 -6.592291e-03 9.005297e-14 1.099998e+01 
-3.090170e-01 2.922696e+00 2.922614e+00 -9.443090e-05 5.386168e-03 0 5.386168e-03 9.005297e-14 1.099998e+01 
-2.486899e-01 3.043550e+00 3.043590e+00 -9.443273e-05 -4.191357e-03 0 -4.191357e-03 9.005297e-14 1.099998e+01 
-1.873813e-01 2.981806e+00 2.981796e+00 -9.443090e-05 3.099305e-03 0 3.099305e-03 9.005297e-14 1.099998e+01 
-1.253332e-01 3.000544e+00 3.000532e+00 -9.443273e-05 -2.037096e-03 0 -2.037096e-03 9.005297e-14 1.099998e+01 
-6.279052e-02 3.009867e+00 3.009892e+00 -9.443090e-05 1.011849e-03 0 1.011849e-03 9.005297e-14 1.099998e+01 
-1.110223e-16 2.986692e+00 2.986663e+00 -9.443273e-05 2.045415e-14 0 2.045415e-14 9.005297e-14 1.099998e+01 
6.279052e-02 3.009867e+00 3.009892e+00 -9.443090e-05 -1.011849e-03 0 -1.011849e-03 9.005297e-14 1.099998e+01 
1.253332e-01 3.000544e+00 3.000532e+00 -9.443273e-05 2.037096e-03 0 2.037096e-03 9.005297e-14 1.099998e+01 
1.873813e-01 2.981806e+00 2.981796e+00 -9.443090e-05 -3.099305e-03 0 -3.099305e-03 9.005297e-14 1.099998e+01 
2.486899e-01 3.043550e+00 3.043590e+00 -9.443273e-05 4.191357e-03 0 4.191357e-03 9.005297e-14 1.099998e+01 
3.090170e-01 2.922696e+00 2.922614e+00 -9.443090e-05 -5.386168e-03 0 -5.386168e-03 9.005297e-14 1.099998e+01 
3.681246e-01 3.120419e+00 3.120553e+00 -9.443273e-05 6.592291e-03 0 6.592291e-03 9.005297e-14 1.099998e+01 
4.257793e-01 2.825808e+00 2.825608e+00 -9.443091e-05 -8.033193e-03 0 -8.033193e-03 9.005297e-14 1.099998e+01 
4.817537e-01 3.240351e+00 3.240632e+00 -9.443273e-05 9.393742e-03 0 9.393742e-03 9.005297e-14 1.099998e+01 
5.358268e-01 2.678810e+00 2.678431e+00 -9.443091e-05 -1.124366e-02 0 -1.124366e-02 9.005297e-14 1.099998e+01 
5.877853e-01 3.419769e+00 3.420269e+00 -9.443272e-05 1.278102e-02 0 1.278102e-02 9.005297e-14 1.099998e+01 
6.374240e-01 2.459790e+00 2.459144e+00 -9.443092e-05 -1.527118e-02 0 -1.527118e-02 9.005297e-14 1.099998e+01 
6.845471e-01 3.688144e+00 3.688971e+00 -9.443272e-05 1.695178e-02 0 1.695178e-02 9.005297e-14 1.099998e+01 
7.289686e-01 2.128590e+00 2.127539e+00 -9.443093e-05 -2.036330e-02 0 -2.036330e-02 9.005297e-14 1.099998e+01 
7.705132e-01 4.101174e+00 4.102505e+00 -9.443272e-05 2.198335e-02 0 2.198335e-02 9.005297e-14 1.099998e+01 
8.090170e-01 1.606218e+00 1.604532e+00 -9.443096e-05 -2.637967e-02 0 -2.637967e-02 9.005297e-14 1.099998e+01 
8.443279e-01 4.774009e+00 4.776158e+00 -9.443272e-05 2.724234e-02 0 2.724234e-02 9.005297e-14 1.099998e+01 
8.763067e-01 7.190824e-01 7.163171e-01 -9.443100e-05 -3.083075e-02 0 -3.083075e-02 9.005297e-14 1.099998e+01 
9.048271e-01 5.979559e+00 5.983173e+00 -9.443272e-05 2.904939e-02 0 2.904939e-02 9.005297e-14 1.099998e+01 
9.297765e-01 -9.848064e-01 -9.896389e-01 -9.443108e-05 -1.973624e-02 0 -1.973624e-02 9.005297e-14 1.099998e+01 
9.510565e-01 8.519755e+00 8.526445e+00 -9.443273e-05 1.209536e-02 0 1.209536e-02 9.005297e-14 1.099998e+01 
9.685832e-01 -5.063570e+00 -5.073330e+00 -9.443126e-05 5.859657e-02 0 5.859657e-02 9.005297e-14 1.099998e+01 
9.822873e-01 1.586379e+01 1.587931e+01 -9.443271e-05 -1.347935e-01 0 -1.347935e-01 9.005297e-14 1.099998e+01 
9.921147e-01 -2.109019e+01 -2.111910e+01 -9.443157e-05 3.452920e-01 0 3.452920e-01 9.005297e-14 1.099998e+01 
9.980267e-01 7.021628e+01 7.029372e+01 -9.443231e-05 -6.545040e+00 0 -6.545040e+00 9.005297e-14 1.099998e+01 
1 3.983392e+02 3.988123e+02 -9.442681e-05 -1.023461e+02 0 -1.023461e+02 9.005297e-14 1.099998e+01 
ZONE T="3.4071e-06", I=51
-1 -2.092713e+03 -2.096665e+03 -1.717062e-04 -1.214073e+03 0 -1.214073e+03 -2.409961e-12 7.996221e+00 
-9.980267e-01 -3.168234e+02 -3.174571e+02 -1.716502e-04 -8.961544e+01 0 -8.961544e+01 -2.409961e-12 7.996221e+00 
-9.921147e-01 1.308710e+02 1.311127e+02 -1.716901e-04 8.304458e-01 0 8.304458e-01 -2.409961e-12 7.996221e+00 
-9.822873e-01 -6.620777e+01 -6.633771e+01 -1.716448e-04 -2.926001e+00 0 -2.926001e+00 -2.409961e-12 7.996221e+00 
-9.685832e-01 4.678675e+01 4.686861e+01 -1.716903e-04 -1.301652e-01 0 -1.301652e-01 -2.409961e-12 7.996221e+00 
-9.510565e-01 -2.707760e+01 -2.713374e+01 -1.716448e-04 -6.556954e-01 0 -6.556954e-01 -2.409961e-12 7.996221e+00 
-9.297765e-01 2.475836e+01 2.479893e+01 -1.716906e-04 -6.720312e-02 0 -6.720312e-02 -2.409961e-12 7.996221e+00 
-9.048271e-01 -1.326858e+01 -1.329892e+01 -1.716447e-04 -2.792420e-01 0 -2.792420e-01 -2.409961e-12 7.996221e+00 
-8.763067e-01 1.543936e+01 1.546257e+01 -1.716907e-04 -1.261852e-02 0 -1.261852e-02 -2.409961e-12 7.996221e+00 
-8.443279e-01 -6.648712e+00 -6.666742e+00 -1.716445e-04 -1.577542e-01 0 -1.577542e-01 -2.409961e-12 7.996221e+00 
-8.090170e-01 1.055023e+01 1.056437e+01 -1.716908e-04 1.523073e-02 0 1.523073e-02 -2.409961e-12 7.996221e+00 
-7.705132e-01 -2.930544e+00 -2.941684e+00 -1.716444e-04 -8.192183e-02 0 -8.192183e-02 -2.409961e-12 7.996221e+00 
-7.289686e-01 7.656395e+00 7.665178e+00 -1.716908e-04 1.506827e-02 0 1.506827e-02 -2.409961e-12 7.996221e+00 
-6.845471e-01 -6.380013e-01 -6.449012e-01 -1.716443e-04 -2.025450e-02 0 -2.025450e-02 -2.409961e-12 7.996221e+00 
-6.374240e-01 5.814805e+00 5.820185e+00 -1.716908e-04 -5.940736e-04 0 -5.940736e-04 -2.409961e-12 7.996221e+00 
-5.877853e-01 8.563406e-01 8.521998e-01 -1.716442e-04 1.380155e-02 0 1.380155e-02 -2.409961e-12 7.996221e+00 
-5.358268e-01 4.593753e+00 4.596880e+00 -1.716908e-04 -1.416610e-02 0 -1.416610e-02 -2.409961e-12 7.996221e+00 
-4.817537e-01 1.857620e+00 1.855326e+00 -1.716442e-04 2.361046e-02 0 2.361046e-02 -2.409961e-12 7.996221e+00 
-4.257793e-01 3.772683e+00 3.774295e+00 -1.716908e-04 -1.903785e-02 0 -1.903785e-02 -2.409961e-12 7.996221e+00 
-3.681246e-01 2.527993e+00 2.526934e+00 -1.716442e-04 2.148945e-02 0 2.148945e-02 -2.409961e-12 7.996221e+00 
-3.090170e-01 3.230794e+00 3.231408e+00 -1.716909e-04 -1.705398e-02 0 -1.705398e-02 -2.409961e-12 7.996221e+00 
-2.486899e-01 2.958129e+00 2.957862e+00 -1.716441e-04 1.512444e-02 0 1.512444e-02 -2.409961e-12 7.996221e+00 
-1.873813e-01 2.899903e+00 2.899908e+00 -1.716909e-04 -1.132222e-02 0 -1.132222e-02 -2.409961e-12 7.996221e+00 
-1.253332e-01 3.198944e+00 3.199121e+00 -1.716441e-04 7.646369e-03 0 7.646369e-03 -2.409961e-12 7.996221e+00 
-6.279052e-02 2.742742e+00 2.742457e+00 -1.716909e-04 -3.926229e-03 0 -3.926229e-03 -2.409961e-12 7.996221e+00 
-1.110223e-16 3.276534e+00 3.276854e+00 -1.716441e-04 1.698543e-14 0 1.698543e-14 -2.409961e-12 7.996221e+00 
6.279052e-02 2.742742e+00 2.742457e+00 -1.716909e-04 3.926229e-03 0 3.926229e-03 -2.409961e-12 7.996221e+00 
1.253332e-01 3.198944e+00 3.199121e+00 -1.716441e-04 -7.646369e-03 0 -7.646369e-03 -2.409961e-12 7.996221e+00 
1.873813e-01 2.899903e+00 2.899908e+00 -1.716909e-04 1.132222e-02 0 1.132222e-02 -2.409961e-12 7.996221e+00 
2.486899e-01 2.958129e+00 2.957862e+00 -1.716441e-04 -1.512444e-02 0 -1.512444e-02 -2.409961e-12 7.996221e+00 
3.090170e-01 3.230794e+00 3.231408e+00 -1.716909e-04 1.705398e-02 0 1.705398e-02 -2.409961e-12 7.996221e+00 
3.681246e-01 2.527993e+00 2.526934e+00 -1.716442e-04 -2.148945e-02 0 -2.148945e-02 -2.409961e-12 7.996221e+00 
4.257793e-01 3.772683e+00 3.774295e+00 -1.716908e-04 1.903785e-02 0 1.903785e-02 -2.409961e-12 7.996221e+00 
4.817537e-01 1.857620e+00 1.855326e+00 -1.716442e-04 -2.361046e-02 0 -2.361046e-02 -2.409961e-12 7.996221e+00 
5.358268e-01 4.593753e+00 4.596880e+00 -1.716908e-04 1.416610e-02 0 1.416610e-02 -2.409961e-12 7.996221e+00 
5.877853e-01 8.563406e-01 8.521998e-01 -1.716442e-04 -1.380155e-02 0 -1.380155e-02 -2.409961e-12 7.996221e+00 
6.374240e-01 5.814805e+00 5.820185e+00 -1.716908e-04 5.940736e-04 0 5.940736e-04 -2.409961e-12 7.996221e+00 
6.845471e-01 -6.380013e-01 -6.449012e-01 -1.716443e-04 2.025450e-02 0 2.025450e-02 -2.409961e-12 7.996221e+00 
7.289686e-01 7.656395e+00 7.665178e+00 -1.716908e-04 -1.506827e-02 0 -1.506827e-02 -2.409961e-12 7.996221e+00 
7.705132e-01 -2.930544e+00 -2.941684e+00 -1.716444e-04 8.192183e-02 0 8.192183e-02 -2.409961e-12 7.996221e+00 
8.090170e-01 1.055023e+01 1.056437e+01 -1.716908e-04 -1.523073e-02 0 -1.523073e-02 -2.409961e-12 7.996221e+00 
8.443279e-01 -6.648712e+00 -6.666742e+00 -1.716445e-04 1.577542e-01 0 1.577542e-01 -2.409961e-12 7.996221e+00 
8.763067e-01 1.543936e+01 1.546257e+01 -1.716907e-04 1.261852e-02 0 1.261852e-02 -2.409961e-12 7.996221e+00 
9.048271e-01 -1.326858e+01 -1.329892e+01 -1.716447e-04 2.792420e-01 0 2.792420e-01 -2.409961e-12 7.996221e+00 
9.297765e-01 2.475836e+01 2.479893e+01 -1.716906e-04 6.720312e-02 0 6.720312e-02 -2.409961e-12 7.996221e+00 
9.510565e-01 -2.707760e+01 -2.713374e+01 -1.716448e-04 6.556954e-01 0 6.556954e-01 -2.409961e-12 7.996221e+00 
9.685832e-01 4.678675e+01 4.686861e+01 -1.716903e-04 1.301652e-01 0 1.301652e-01 -2.409961e-12 7.996221e+00 
9.822873e-01 -6.620777e+01 -6.633771e+01 -1.716448e-04 2.926001e+00 0 2.926001e+00 -2.409961e-12 7.996221e+00 
9.921147e-01 1.308710e+02 1.311127e+02 -1.716901e-04 -8.304458e-01 0 -8.304458e-01 -2.409961e-12 7.996221e+00 
9.980267e-01 -3.168234e+02 -3.174571e+02 -1.716502e-04 8.961544e+01 0 8.961544e+01 -2.409961e-12 7.996221e+00 
1 -2.092713e+03 -2.096665e+03 -1.717062e-04 1.214073e+03 0 1.214073e+03 -2.409961e-12 7.996221e+00 
ZONE T="4.0885e-06", I=51
-1 5.239647e+04 5.255004e+04 4.888719e-04 1.050592e+04 0 1.050592e+04 8.011369e-12 -3.742671e+02 
-9.980267e-01 8.807223e+03 8.833181e+03 4.881882e-04 7.038341e+02 0 7.038341e+02 8.011369e-12 -3.742671e+02 
-9.921147e-01 -3.214080e+03 -3.223520e+03 4.885934e-04 -1.697639e+01 0 -1.697639e+01 8.011369e-12 -3.742671e+02 
-9.822873e-01 1.720667e+03 1.725702e+03 4.880854e-04 1.894657e+01 0 1.894657e+01 8.011369e-12 -3.742671e+02 
-9.685832e-01 -1.074493e+03 -1.077649e+03 4.885777e-04 -1.880363e+00 0 -1.880363e+00 8.011369e-12 -3.742671e+02 
-9.510565e-01 7.404538e+02 7.426132e+02 4.880653e-04 3.043019e+00 0 3.043019e+00 8.011369e-12 -3.742671e+02 
-9.297765e-01 -5.294858e+02 -5.310448e+02 4.885694e-04 -6.095057e-01 0 -6.095057e-01 8.011369e-12 -3.742671e+02 
-9.048271e-01 4.011992e+02 4.023650e+02 4.880565e-04 8.581055e-01 0 8.581055e-01 8.011369e-12 -3.742671e+02 
-8.763067e-01 -3.019043e+02 -3.027971e+02 4.885643e-04 -2.883797e-01 0 -2.883797e-01 8.011369e-12 -3.742671e+02 
-8.443279e-01 2.402132e+02 2.409080e+02 4.880517e-04 3.191631e-01 0 3.191631e-01 8.011369e-12 -3.742671e+02 
-8.090170e-01 -1.834466e+02 -1.839929e+02 4.885609e-04 -1.630818e-01 0 -1.630818e-01 8.011369e-12 -3.742671e+02 
-7.705132e-01 1.503820e+02 1.508141e+02 4.880492e-04 1.415666e-01 0 1.415666e-01 8.011369e-12 -3.742671e+02 
-7.289686e-01 -1.137103e+02 -1.140526e+02 4.885591e-04 -1.013654e-01 0 -1.013654e-01 8.011369e-12 -3.742671e+02 
-6.845471e-01 9.524784e+01 9.551865e+01 4.880482e-04 7.279205e-02 0 7.279205e-02 8.011369e-12 -3.742671e+02 
-6.374240e-01 -6.950301e+01 -6.971611e+01 4.885588e-04 -6.649582e-02 0 -6.649582e-02 8.011369e-12 -3.742671e+02 