TITLE = "2 species of PNP-Steric with high order term" 
VARIABLES = "X" "Conc1" "Conc2" "phi" "Current_x""I_ext" "I_PNP" "CURRENT" "ENERGY" "
ZONE T="0.001", I=101
-1 2.146956e-01 2.396339e-01 -1.062576e-04 -7.378746e+00 0 -1.567234e+02 -6.399631e-04 1.184102e+01 
-9.995066e-01 2.616789e-01 2.617939e-01 -1.058538e-04 2.250678e+00 0 -5.309844e+01 -6.399631e-04 1.184102e+01 
-9.980267e-01 3.454251e-01 3.463675e-01 -1.069980e-04 -1.712184e+00 0 1.298004e+01 -6.399631e-04 1.184102e+01 
-9.955620e-01 4.720096e-01 4.679232e-01 -1.057418e-04 1.402327e+00 0 -6.924628e+00 -6.399631e-04 1.184102e+01 
-9.921147e-01 6.175345e-01 6.218675e-01 -1.076205e-04 -1.303193e+00 0 4.730570e+00 -6.399631e-04 1.184102e+01 
-9.876883e-01 7.896716e-01 7.824988e-01 -1.060519e-04 1.180150e+00 0 -3.302412e+00 -6.399631e-04 1.184102e+01 
-9.822873e-01 9.569985e-01 9.652669e-01 -1.085111e-04 -1.154653e+00 0 2.473389e+00 -6.399631e-04 1.184102e+01 
-9.759168e-01 1.146808e+00 1.135893e+00 -1.067523e-04 1.102158e+00 0 -1.793611e+00 -6.399631e-04 1.184102e+01 
-9.685832e-01 1.315591e+00 1.328119e+00 -1.097873e-04 -1.087520e+00 0 1.320727e+00 -6.399631e-04 1.184102e+01 
-9.602937e-01 1.508737e+00 1.493744e+00 -1.078391e-04 1.076541e+00 0 -9.180654e-01 -6.399631e-04 1.184102e+01 
-9.510565e-01 1.667168e+00 1.684109e+00 -1.115061e-04 -1.051689e+00 0 6.280942e-01 -6.399631e-04 1.184102e+01 
-9.408808e-01 1.854022e+00 1.834875e+00 -1.092778e-04 1.062923e+00 0 -3.809514e-01 -6.399631e-04 1.184102e+01 
-9.297765e-01 1.993579e+00 2.014883e+00 -1.136525e-04 -1.025031e+00 0 2.131131e-01 -6.399631e-04 1.184102e+01 
-9.177546e-01 2.166457e+00 2.143300e+00 -1.109725e-04 1.037569e+00 0 -8.010068e-02 -6.399631e-04 1.184102e+01 
-9.048271e-01 2.280660e+00 2.306016e+00 -1.161156e-04 -9.923866e-01 0 7.503523e-05 -6.399631e-04 1.184102e+01 
-8.910065e-01 2.433437e+00 2.406630e+00 -1.127633e-04 9.890166e-01 0 4.251273e-02 -6.399631e-04 1.184102e+01 
-8.763067e-01 2.518044e+00 2.546864e+00 -1.187062e-04 -9.417967e-01 0 -6.042374e-02 -6.399631e-04 1.184102e+01 
-8.607420e-01 2.646640e+00 2.616782e+00 -1.144751e-04 9.168778e-01 0 3.991837e-02 -6.399631e-04 1.184102e+01 
-8.443279e-01 2.700277e+00 2.731756e+00 -1.212200e-04 -8.697617e-01 0 -2.038093e-02 -6.399631e-04 1.184102e+01 
-8.270806e-01 2.803358e+00 2.771240e+00 -1.159833e-04 8.296565e-01 0 -2.985378e-02 -6.399631e-04 1.184102e+01 
-8.090170e-01 2.827954e+00 2.861203e+00 -1.235011e-04 -7.851325e-01 0 6.072272e-02 -6.399631e-04 1.184102e+01 
-7.901550e-01 2.907340e+00 2.873805e+00 -1.172366e-04 7.413586e-01 0 -1.095748e-01 -6.399631e-04 1.184102e+01 
-7.705132e-01 2.907871e+00 2.942092e+00 -1.254656e-04 -7.031743e-01 0 1.301622e-01 -6.399631e-04 1.184102e+01 
-7.501111e-01 2.968171e+00 2.933914e+00 -1.182262e-04 6.639424e-01 0 -1.597910e-01 -6.399631e-04 1.184102e+01 
-7.289686e-01 2.951451e+00 2.986092e+00 -1.270931e-04 -6.332746e-01 0 1.618257e-01 -6.399631e-04 1.184102e+01 
-7.071068e-01 2.998744e+00 2.964185e+00 -1.189496e-04 5.997644e-01 0 -1.715138e-01 -6.399631e-04 1.184102e+01 
-6.845471e-01 2.971587e+00 3.006381e+00 -1.284012e-04 -5.737305e-01 0 1.602328e-01 -6.399631e-04 1.184102e+01 
-6.613119e-01 3.011608e+00 2.976907e+00 -1.194025e-04 5.427191e-01 0 -1.595911e-01 -6.399631e-04 1.184102e+01 
-6.374240e-01 2.979239e+00 3.014127e+00 -1.294178e-04 -5.173561e-01 0 1.451578e-01 -6.399631e-04 1.184102e+01 
-6.129071e-01 3.016056e+00 2.981225e+00 -1.195873e-04 4.856721e-01 0 -1.441653e-01 -6.399631e-04 1.184102e+01 
-5.877853e-01 2.981542e+00 3.016553e+00 -1.301644e-04 -4.587213e-01 0 1.339352e-01 -6.399631e-04 1.184102e+01 
-5.620834e-01 3.017336e+00 2.982341e+00 -1.195174e-04 4.250363e-01 0 -1.380137e-01 -6.399631e-04 1.184102e+01 
-5.358268e-01 2.982040e+00 3.017213e+00 -1.306538e-04 -3.959771e-01 0 1.347796e-01 -6.399631e-04 1.184102e+01 
-5.090414e-01 3.017691e+00 2.982504e+00 -1.192132e-04 3.601247e-01 0 -1.453822e-01 -6.399631e-04 1.184102e+01 
-4.817537e-01 2.982065e+00 3.017422e+00 -1.308946e-04 -3.290711e-01 0 1.492008e-01 -6.399631e-04 1.184102e+01 
-4.539905e-01 3.017836e+00 2.982450e+00 -1.186980e-04 2.911565e-01 0 -1.659883e-01 -6.399631e-04 1.184102e+01 
-4.257793e-01 2.981998e+00 3.017541e+00 -1.308954e-04 -2.582687e-01 0 1.760211e-01 -6.399631e-04 1.184102e+01 
-3.971479e-01 3.017940e+00 2.982362e+00 -1.179952e-04 2.184085e-01 0 -1.982043e-01 -6.399631e-04 1.184102e+01 
-3.681246e-01 2.981922e+00 3.017638e+00 -1.306652e-04 -1.838397e-01 0 2.135112e-01 -6.399631e-04 1.184102e+01 
-3.387379e-01 3.018026e+00 2.982280e+00 -1.171285e-04 1.421933e-01 0 -2.402869e-01 -6.399631e-04 1.184102e+01 
-3.090170e-01 2.981857e+00 3.017719e+00 -1.302143e-04 -1.061448e-01 0 2.600039e-01 -6.399631e-04 1.184102e+01 
-2.789911e-01 3.018095e+00 2.982212e+00 -1.161213e-04 6.294462e-02 0 -2.906256e-01 -6.399631e-04 1.184102e+01 
-2.486899e-01 2.981809e+00 3.017783e+00 -1.295540e-04 -2.567976e-02 0 3.139697e-01 -6.399631e-04 1.184102e+01 
-2.181432e-01 3.018143e+00 2.982163e+00 -1.149971e-04 -1.877769e-02 0 -3.477453e-01 -6.399631e-04 1.184102e+01 
-1.873813e-01 2.981781e+00 3.017824e+00 -1.286970e-04 5.694870e-02 0 3.740007e-01 -6.399631e-04 1.184102e+01 
-1.564345e-01 3.018167e+00 2.982136e+00 -1.137785e-04 -1.023260e-01 0 -4.102885e-01 -6.399631e-04 1.184102e+01 
-1.253332e-01 2.981776e+00 3.017842e+00 -1.276574e-04 1.410678e-01 0 4.388013e-01 -6.399631e-04 1.184102e+01 
-9.410831e-02 3.018167e+00 2.982133e+00 -1.124876e-04 -1.870097e-01 0 -4.770112e-01 -6.399631e-04 1.184102e+01 
-6.279052e-02 2.981796e+00 3.017834e+00 -1.264512e-04 2.259816e-01 0 5.071881e-01 -6.399631e-04 1.184102e+01 
-3.141076e-02 3.018140e+00 2.982156e+00 -1.111451e-04 -2.721342e-01 0 -5.467854e-01 -6.399631e-04 1.184102e+01 
-1.110223e-16 2.981842e+00 3.017800e+00 -1.250958e-04 3.110054e-01 0 5.780943e-01 -6.399631e-04 1.184102e+01 
3.141076e-02 3.018086e+00 2.982205e+00 -1.097708e-04 -3.570297e-01 0 -6.186018e-01 -6.399631e-04 1.184102e+01 
6.279052e-02 2.981913e+00 3.017741e+00 -1.236104e-04 3.954902e-01 0 6.505718e-01 -6.399631e-04 1.184102e+01 
9.410831e-02 3.018008e+00 2.982278e+00 -1.083828e-04 -4.410716e-01 0 -6.915712e-01 -6.399631e-04 1.184102e+01 
1.253332e-01 2.982008e+00 3.017657e+00 -1.220157e-04 4.788391e-01 0 7.237918e-01 -6.399631e-04 1.184102e+01 
1.564345e-01 3.017906e+00 2.982375e+00 -1.069980e-04 -5.236940e-01 0 -7.649247e-01 -6.399631e-04 1.184102e+01 
1.873813e-01 2.982126e+00 3.017550e+00 -1.203337e-04 5.605191e-01 0 7.970452e-01 -6.399631e-04 1.184102e+01 
2.181432e-01 3.017782e+00 2.982493e+00 -1.056318e-04 -6.043993e-01 0 -8.380143e-01 -6.399631e-04 1.184102e+01 
2.486899e-01 2.982263e+00 3.017423e+00 -1.185874e-04 6.400695e-01 0 8.697440e-01 -6.399631e-04 1.184102e+01 
2.789911e-01 3.017640e+00 2.982630e+00 -1.042986e-04 -6.827680e-01 0 -9.103158e-01 -6.399631e-04 1.184102e+01 
3.090170e-01 2.982418e+00 3.017280e+00 -1.168006e-04 7.171128e-01 0 9.414264e-01 -6.399631e-04 1.184102e+01 
3.387379e-01 3.017483e+00 2.982781e+00 -1.030112e-04 -7.584697e-01 0 -9.814373e-01 -6.399631e-04 1.184102e+01 
3.681246e-01 2.982585e+00 3.017124e+00 -1.149976e-04 7.913673e-01 0 1.011768e+00 -6.399631e-04 1.184102e+01 
3.971479e-01 3.017315e+00 2.982943e+00 -1.017817e-04 -8.312771e-01 0 -1.051133e+00 -6.399631e-04 1.184102e+01 
4.257793e-01 2.982758e+00 3.016958e+00 -1.132026e-04 8.626597e-01 0 1.080601e+00 -6.399631e-04 1.184102e+01 
4.539905e-01 3.017137e+00 2.983105e+00 -1.006210e-04 -9.010752e-01 0 -1.119333e+00 -6.399631e-04 1.184102e+01 
4.817537e-01 2.982920e+00 3.016776e+00 -1.114397e-04 9.309233e-01 0 1.147956e+00 -6.399631e-04 1.184102e+01 
5.090414e-01 3.016926e+00 2.983229e+00 -9.953919e-05 -9.678371e-01 0 -1.186221e+00 -6.399631e-04 1.184102e+01 
5.358268e-01 2.982986e+00 3.016509e+00 -1.097324e-04 9.961401e-01 0 1.214235e+00 -6.399631e-04 1.184102e+01 
5.620834e-01 3.016513e+00 2.983132e+00 -9.854542e-05 -1.031535e+00 0 -1.252595e+00 -6.399631e-04 1.184102e+01 
5.877853e-01 2.982574e+00 3.015795e+00 -1.081039e-04 1.058257e+00 0 1.280908e+00 -6.399631e-04 1.184102e+01 
6.129071e-01 3.015179e+00 2.982073e+00 -9.764812e-05 -1.092168e+00 0 -1.321143e+00 -6.399631e-04 1.184102e+01 
6.374240e-01 2.980346e+00 3.013310e+00 -1.065755e-04 1.117506e+00 0 1.352594e+00 -6.399631e-04 1.184102e+01 
6.613119e-01 3.010671e+00 2.977789e+00 -9.685704e-05 -1.150587e+00 0 -1.399425e+00 -6.399631e-04 1.184102e+01 
6.845471e-01 2.972741e+00 3.005488e+00 -1.051639e-04 1.175865e+00 0 1.440712e+00 -6.399631e-04 1.184102e+01 
7.071068e-01 2.997728e+00 2.965058e+00 -9.618779e-05 -1.210439e+00 0 -1.503398e+00 -6.399631e-04 1.184102e+01 
7.289686e-01 2.952601e+00 2.985086e+00 -1.038757e-04 1.238891e+00 0 1.565401e+00 -6.399631e-04 1.184102e+01 
7.501111e-01 2.967046e+00 2.934712e+00 -9.566530e-05 -1.278849e+00 0 -1.655899e+00 -6.399631e-04 1.184102e+01 
7.705132e-01 2.908951e+00 2.940934e+00 -1.027091e-04 1.314142e+00 0 1.748901e+00 -6.399631e-04 1.184102e+01 
7.901550e-01 2.906081e+00 2.874450e+00 -9.531819e-05 -1.362050e+00 0 -1.874480e+00 -6.399631e-04 1.184102e+01 
8.090170e-01 2.828898e+00 2.859865e+00 -1.016669e-04 1.404469e+00 0 1.999055e+00 -6.399631e-04 1.184102e+01 
8.270806e-01 2.801965e+00 2.771665e+00 -9.516532e-05 -1.458073e+00 0 -2.154147e+00 -6.399631e-04 1.184102e+01 
8.443279e-01 2.701039e+00 2.730243e+00 -1.007742e-04 1.502842e+00 0 2.295910e+00 -6.399631e-04 1.184102e+01 
8.607420e-01 2.645142e+00 2.616953e+00 -9.520944e-05 -1.555469e+00 0 -2.462008e+00 -6.399631e-04 1.184102e+01 
8.763067e-01 2.518603e+00 2.545224e+00 -1.000815e-04 1.597051e+00 0 2.597354e+00 -6.399631e-04 1.184102e+01 
8.910065e-01 2.431881e+00 2.406561e+00 -9.544413e-05 -1.641290e+00 0 -2.751474e+00 -6.399631e-04 1.184102e+01 
9.048271e-01 2.281013e+00 2.304336e+00 -9.964355e-05 1.680182e+00 0 2.859997e+00 -6.399631e-04 1.184102e+01 
9.177546e-01 2.164889e+00 2.143050e+00 -9.585514e-05 -1.710216e+00 0 -2.982594e+00 -6.399631e-04 1.184102e+01 
9.297765e-01 1.993736e+00 2.013274e+00 -9.948029e-05 1.755394e+00 0 3.056387e+00 -6.399631e-04 1.184102e+01 
9.408808e-01 1.852477e+00 1.834534e+00 -9.640274e-05 -1.768854e+00 0 -3.134220e+00 -6.399631e-04 1.184102e+01 
9.510565e-01 1.667141e+00 1.682685e+00 -9.954427e-05 1.834036e+00 0 3.180242e+00 -6.399631e-04 1.184102e+01 
9.602937e-01 1.507239e+00 1.493409e+00 -9.700801e-05 -1.837302e+00 0 -3.207014e+00 -6.399631e-04 1.184102e+01 
9.685832e-01 1.315386e+00 1.326983e+00 -9.972254e-05 1.934905e+00 0 3.244923e+00 -6.399631e-04 1.184102e+01 
9.759168e-01 1.145352e+00 1.135659e+00 -9.757296e-05 -1.951083e+00 0 -3.221535e+00 -6.399631e-04 1.184102e+01 
9.822873e-01 9.565960e-01 9.645118e-01 -9.988059e-05 2.093543e+00 0 3.286885e+00 -6.399631e-04 1.184102e+01 
9.876883e-01 7.882049e-01 7.824685e-01 -9.802966e-05 -2.173138e+00 0 -3.221951e+00 -6.399631e-04 1.184102e+01 
9.921147e-01 6.168655e-01 6.215872e-01 -9.991489e-05 2.398519e+00 0 3.398977e+00 -6.399631e-04 1.184102e+01 
9.955620e-01 4.704248e-01 4.682009e-01 -9.838524e-05 -2.661702e+00 0 -3.339999e+00 -6.399631e-04 1.184102e+01 
9.980267e-01 3.443463e-01 3.466275e-01 -9.976599e-05 3.178952e+00 0 3.905783e+00 -6.399631e-04 1.184102e+01 
9.995066e-01 2.613012e-01 2.618627e-01 -9.876404e-05 -4.307639e+00 0 -3.242553e+00 -6.399631e-04 1.184102e+01 
1 2.349617e-01 2.364246e-01 -9.918260e-05 1.392859e+01 0 1.407172e+01 -6.399631e-04 1.184102e+01 
ZONE T="0.002", I=101
-1 2.221832e-01 2.365418e-01 -1.063304e-04 1.712058e-01 0 -8.943096e+01 1.312241e-03 1.129467e+01 
-9.995066e-01 2.528916e-01 2.530192e-01 -1.062862e-04 -4.748403e-02 0 -3.141204e+01 1.312241e-03 1.129467e+01 
-9.980267e-01 3.141697e-01 3.138700e-01 -1.065564e-04 4.100498e-02 0 8.242410e+00 1.312241e-03 1.129467e+01 
-9.955620e-01 4.070759e-01 4.059489e-01 -1.064711e-04 -2.411431e-02 0 -4.633558e+00 1.312241e-03 1.129467e+01 
-9.921147e-01 5.214426e-01 5.218452e-01 -1.069808e-04 2.985513e-02 0 3.445133e+00 1.312241e-03 1.129467e+01 
-9.876883e-01 6.530171e-01 6.516307e-01 -1.069667e-04 -1.280418e-02 0 -2.644388e+00 1.312241e-03 1.129467e+01 
-9.822873e-01 7.924961e-01 7.936281e-01 -1.077070e-04 2.274155e-02 0 2.267283e+00 1.312241e-03 1.129467e+01 
-9.759168e-01 9.410388e-01 9.392545e-01 -1.077997e-04 -3.854106e-03 0 -1.904470e+00 1.312241e-03 1.129467e+01 
-9.685832e-01 1.089653e+00 1.091515e+00 -1.087731e-04 1.639583e-02 0 1.699285e+00 1.312241e-03 1.129467e+01 
-9.602937e-01 1.243455e+00 1.241168e+00 -1.089730e-04 3.866661e-03 0 -1.485335e+00 1.312241e-03 1.129467e+01 
-9.510565e-01 1.392104e+00 1.394683e+00 -1.101754e-04 1.063711e-02 0 1.348600e+00 1.312241e-03 1.129467e+01 
-9.408808e-01 1.543861e+00 1.541016e+00 -1.104531e-04 1.023173e-02 0 -1.204745e+00 1.312241e-03 1.129467e+01 
-9.297765e-01 1.686317e+00 1.689594e+00 -1.118703e-04 5.534797e-03 0 1.106305e+00 1.312241e-03 1.129467e+01 
-9.177546e-01 1.830578e+00 1.827156e+00 -1.121715e-04 1.448097e-02 0 -1.002759e+00 1.312241e-03 1.129467e+01 
-9.048271e-01 1.961961e+00 1.965902e+00 -1.137773e-04 1.110409e-03 0 9.291016e-01 1.312241e-03 1.129467e+01 
-8.910065e-01 2.094286e+00 2.090296e+00 -1.140271e-04 1.582858e-02 0 -8.527219e-01 1.312241e-03 1.129467e+01 
-8.763067e-01 2.210657e+00 2.215206e+00 -1.157839e-04 -2.271142e-03 0 7.959249e-01 1.312241e-03 1.129467e+01 
-8.607420e-01 2.327497e+00 2.322971e+00 -1.158971e-04 1.410858e-02 0 -7.397404e-01 1.312241e-03 1.129467e+01 
-8.443279e-01 2.425919e+00 2.430994e+00 -1.177623e-04 -3.746897e-03 0 6.948639e-01 1.312241e-03 1.129467e+01 
-8.270806e-01 2.524787e+00 2.519777e+00 -1.176600e-04 9.862427e-03 0 -6.537729e-01 1.312241e-03 1.129467e+01 
-8.090170e-01 2.603558e+00 2.609056e+00 -1.195960e-04 -2.502147e-03 0 6.178003e-01 1.312241e-03 1.129467e+01 
-7.901550e-01 2.683283e+00 2.677869e+00 -1.192220e-04 3.877115e-03 0 -5.872304e-01 1.312241e-03 1.129467e+01 
-7.705132e-01 2.742166e+00 2.747981e+00 -1.212027e-04 1.503180e-03 0 5.580258e-01 1.312241e-03 1.129467e+01 
-7.501111e-01 2.803093e+00 2.797372e+00 -1.205302e-04 -3.140067e-03 0 -5.340738e-01 1.312241e-03 1.129467e+01 
-7.289686e-01 2.843405e+00 2.849432e+00 -1.225392e-04 7.434525e-03 0 5.096963e-01 1.312241e-03 1.129467e+01 
-7.071068e-01 2.887377e+00 2.881449e+00 -1.215664e-04 -1.053934e-02 0 -4.895425e-01 1.312241e-03 1.129467e+01 
-6.845471e-01 2.911810e+00 2.917962e+00 -1.235917e-04 1.415306e-02 0 4.683047e-01 1.312241e-03 1.129467e+01 
-6.613119e-01 2.941871e+00 2.935823e+00 -1.223323e-04 -1.775365e-02 0 -4.503402e-01 1.312241e-03 1.129467e+01 
-6.374240e-01 2.954017e+00 2.960225e+00 -1.243634e-04 2.082905e-02 0 4.311864e-01 1.312241e-03 1.129467e+01 
-6.129071e-01 2.973822e+00 2.967715e+00 -1.228375e-04 -2.449566e-02 0 -4.148395e-01 1.312241e-03 1.129467e+01 
-5.877853e-01 2.977476e+00 2.983698e+00 -1.248662e-04 2.717837e-02 0 3.974498e-01 1.312241e-03 1.129467e+01 
-5.620834e-01 2.990579e+00 2.984451e+00 -1.230946e-04 -3.085050e-02 0 -3.828166e-01 1.312241e-03 1.129467e+01 
-5.358268e-01 2.989068e+00 2.995283e+00 -1.251154e-04 3.334509e-02 0 3.673346e-01 1.312241e-03 1.129467e+01 
-5.090414e-01 2.998342e+00 2.992210e+00 -1.231171e-04 -3.713259e-02 0 -3.547409e-01 1.312241e-03 1.129467e+01 
-4.817537e-01 2.994104e+00 3.000305e+00 -1.251276e-04 3.962850e-02 0 3.413897e-01 1.312241e-03 1.129467e+01 
-4.539905e-01 3.001485e+00 2.995356e+00 -1.229201e-04 -4.365102e-02 0 -3.310547e-01 1.312241e-03 1.129467e+01 
-4.257793e-01 2.996013e+00 3.002198e+00 -1.249191e-04 4.625856e-02 0 3.198938e-01 1.312241e-03 1.129467e+01 
-3.971479e-01 3.002589e+00 2.996464e+00 -1.225201e-04 -5.057459e-02 0 -3.118065e-01 1.312241e-03 1.129467e+01 
-3.681246e-01 2.996644e+00 3.002815e+00 -1.245060e-04 5.332524e-02 0 3.026975e-01 1.312241e-03 1.129467e+01 
-3.387379e-01 3.002924e+00 2.996804e+00 -1.219343e-04 -5.793801e-02 0 -2.966668e-01 1.312241e-03 1.129467e+01 
-3.090170e-01 2.996830e+00 3.002988e+00 -1.239044e-04 6.082092e-02 0 2.893568e-01 1.312241e-03 1.129467e+01 
-2.789911e-01 3.003010e+00 2.996898e+00 -1.211807e-04 -6.570699e-02 0 -2.851150e-01 1.312241e-03 1.129467e+01 
-2.486899e-01 2.996885e+00 3.003028e+00 -1.231308e-04 6.869845e-02 0 2.793261e-01 1.312241e-03 1.129467e+01 
-2.181432e-01 3.003027e+00 2.996925e+00 -1.202775e-04 -7.382497e-02 0 -2.766023e-01 1.312241e-03 1.129467e+01 
-1.873813e-01 2.996907e+00 3.003033e+00 -1.222020e-04 7.689858e-02 0 2.720793e-01 1.312241e-03 1.129467e+01 
-1.564345e-01 3.003025e+00 2.996938e+00 -1.192429e-04 -8.222857e-02 0 -2.706308e-01 1.312241e-03 1.129467e+01 
-1.253332e-01 2.996923e+00 3.003029e+00 -1.211355e-04 8.535628e-02 0 2.671540e-01 1.312241e-03 1.129467e+01 
-9.410831e-02 3.003018e+00 2.996949e+00 -1.180954e-04 -9.084913e-02 0 -2.667715e-01 1.312241e-03 1.129467e+01 
-6.279052e-02 2.996939e+00 3.003020e+00 -1.199491e-04 9.400130e-02 0 2.641555e-01 1.312241e-03 1.129467e+01 
-3.141076e-02 3.003007e+00 2.996961e+00 -1.168537e-04 -9.961402e-02 0 -2.646602e-01 1.312241e-03 1.129467e+01 
-1.110223e-16 2.996957e+00 3.003009e+00 -1.186613e-04 1.027597e-01 0 2.627482e-01 1.312241e-03 1.129467e+01 
3.141076e-02 3.002994e+00 2.996976e+00 -1.155362e-04 -1.084482e-01 0 -2.639866e-01 1.312241e-03 1.129467e+01 
6.279052e-02 2.996977e+00 3.002996e+00 -1.172905e-04 1.115568e-01 0 2.626462e-01 1.312241e-03 1.129467e+01 
9.410831e-02 3.002978e+00 2.996992e+00 -1.141614e-04 -1.172785e-01 0 -2.644877e-01 1.312241e-03 1.129467e+01 
1.253332e-01 2.996999e+00 3.002980e+00 -1.158557e-04 1.203213e-01 0 2.636073e-01 1.312241e-03 1.129467e+01 
1.564345e-01 3.002959e+00 2.997010e+00 -1.127473e-04 -1.260364e-01 0 -2.659416e-01 1.312241e-03 1.129467e+01 
1.873813e-01 2.997021e+00 3.002960e+00 -1.143760e-04 1.289885e-01 0 2.654290e-01 1.312241e-03 1.129467e+01 
2.181432e-01 3.002935e+00 2.997026e+00 -1.113120e-04 -1.346622e-01 0 -2.681651e-01 1.312241e-03 1.129467e+01 
2.486899e-01 2.997037e+00 3.002932e+00 -1.128703e-04 1.375034e-01 0 2.679467e-01 1.312241e-03 1.129467e+01 
2.789911e-01 3.002895e+00 2.997027e+00 -1.098730e-04 -1.431067e-01 0 -2.710145e-01 1.312241e-03 1.129467e+01 
3.090170e-01 2.997020e+00 3.002870e+00 -1.113578e-04 1.458219e-01 0 2.710388e-01 1.312241e-03 1.129467e+01 
3.387379e-01 3.002786e+00 2.996961e+00 -1.084474e-04 -1.513322e-01 0 -2.743962e-01 1.312241e-03 1.129467e+01 
3.681246e-01 2.996872e+00 3.002676e+00 -1.098571e-04 1.539117e-01 0 2.746452e-01 1.312241e-03 1.129467e+01 
3.971479e-01 3.002432e+00 2.996648e+00 -1.070521e-04 -1.593140e-01 0 -2.782988e-01 1.312241e-03 1.129467e+01 
4.257793e-01 2.996278e+00 3.002038e+00 -1.083867e-04 1.617575e-01 0 2.788205e-01 1.312241e-03 1.129467e+01 
4.539905e-01 3.001309e+00 2.995564e+00 -1.057030e-04 -1.670544e-01 0 -2.828733e-01 1.312241e-03 1.129467e+01 
4.817537e-01 2.994403e+00 3.000122e+00 -1.069645e-04 1.693891e-01 0 2.838432e-01 1.312241e-03 1.129467e+01 
5.090414e-01 2.998144e+00 2.992436e+00 -1.044161e-04 -1.746267e-01 0 -2.885681e-01 1.312241e-03 1.129467e+01 
5.358268e-01 2.989394e+00 2.995073e+00 -1.056073e-04 1.769399e-01 0 2.903603e-01 1.312241e-03 1.129467e+01 
5.620834e-01 2.990355e+00 2.984682e+00 -1.032071e-04 -1.822355e-01 0 -2.962515e-01 1.312241e-03 1.129467e+01 
5.877853e-01 2.977814e+00 2.983449e+00 -1.043305e-04 1.846933e-01 0 2.994431e-01 1.312241e-03 1.129467e+01 
6.129071e-01 2.973562e+00 2.967934e+00 -1.020918e-04 -1.902214e-01 0 -3.071521e-01 1.312241e-03 1.129467e+01 
6.374240e-01 2.954350e+00 2.959924e+00 -1.031478e-04 1.930265e-01 0 3.123684e-01 1.312241e-03 1.129467e+01 
6.613119e-01 2.941565e+00 2.936007e+00 -1.010857e-04 -1.989324e-01 0 -3.224687e-01 1.312241e-03 1.129467e+01 
6.845471e-01 2.912119e+00 2.917593e+00 -1.020718e-04 2.022153e-01 0 3.300640e-01 1.312241e-03 1.129467e+01 
7.071068e-01 2.887015e+00 2.881574e+00 -1.002031e-04 -2.084963e-01 0 -3.427238e-01 1.312241e-03 1.129467e+01 
7.289686e-01 2.843671e+00 2.848984e+00 -1.011152e-04 2.122065e-01 0 3.524368e-01 1.312241e-03 1.129467e+01 
7.501111e-01 2.802674e+00 2.797419e+00 -9.945663e-05 -2.186571e-01 0 -3.672146e-01 1.312241e-03 1.129467e+01 
7.705132e-01 2.742379e+00 2.747449e+00 -1.002920e-04 2.225641e-01 0 3.780198e-01 1.312241e-03 1.129467e+01 
7.901550e-01 2.682814e+00 2.677826e+00 -9.885691e-05 -2.288157e-01 0 -3.939412e-01 1.312241e-03 1.129467e+01 
8.090170e-01 2.603714e+00 2.608448e+00 -9.961890e-05 2.327336e-01 0 4.042747e-01 1.312241e-03 1.129467e+01 
8.270806e-01 2.524280e+00 2.519643e+00 -9.841441e-05 -2.382526e-01 0 -4.200858e-01 1.312241e-03 1.129467e+01 
8.443279e-01 2.426021e+00 2.430328e+00 -9.911391e-05 2.425122e-01 0 4.284707e-01 1.312241e-03 1.129467e+01 
8.607420e-01 2.326969e+00 2.322760e+00 -9.813796e-05 -2.464228e-01 0 -4.427554e-01 1.312241e-03 1.129467e+01 
8.763067e-01 2.210709e+00 2.214514e+00 -9.879013e-05 2.522927e-01 0 4.485645e-01 1.312241e-03 1.129467e+01 
8.910065e-01 2.093749e+00 2.090035e+00 -9.802740e-05 -2.533216e-01 0 -4.596989e-01 1.312241e-03 1.129467e+01 
9.048271e-01 1.961967e+00 1.965221e+00 -9.864377e-05 2.628118e-01 0 4.635471e-01 1.312241e-03 1.129467e+01 
9.177546e-01 1.830041e+00 1.826876e+00 -9.806304e-05 -2.599194e-01 0 -4.699167e-01 1.312241e-03 1.129467e+01 
9.297765e-01 1.686280e+00 1.688963e+00 -9.864498e-05 2.748071e-01 0 4.733370e-01 1.312241e-03 1.129467e+01 
9.408808e-01 1.543330e+00 1.540753e+00 -9.820229e-05 -2.683886e-01 0 -4.740177e-01 1.312241e-03 1.129467e+01 
9.510565e-01 1.392021e+00 1.394141e+00 -9.874131e-05 2.892594e-01 0 4.787492e-01 1.312241e-03 1.129467e+01 
9.602937e-01 1.242927e+00 1.240955e+00 -9.839021e-05 -2.819858e-01 0 -4.741892e-01 1.312241e-03 1.129467e+01 
9.685832e-01 1.089517e+00 1.091096e+00 -9.887381e-05 3.084578e-01 0 4.820417e-01 1.312241e-03 1.129467e+01 
9.759168e-01 9.405009e-01 9.391241e-01 -9.857755e-05 -3.053349e-01 0 -4.743187e-01 1.312241e-03 1.129467e+01 
9.822873e-01 7.922889e-01 7.933669e-01 -9.899445e-05 3.379945e-01 0 4.886442e-01 1.312241e-03 1.129467e+01 
9.876883e-01 6.524410e-01 6.516178e-01 -9.873414e-05 -3.469723e-01 0 -4.822957e-01 1.312241e-03 1.129467e+01 
9.921147e-01 5.211334e-01 5.217719e-01 -9.907389e-05 3.922520e-01 0 5.133881e-01 1.312241e-03 1.129467e+01 
9.955620e-01 4.064278e-01 4.060784e-01 -9.885205e-05 -4.312073e-01 0 -5.235500e-01 1.312241e-03 1.129467e+01 
9.980267e-01 3.137040e-01 3.139970e-01 -9.909681e-05 5.243425e-01 0 6.108019e-01 1.312241e-03 1.129467e+01 
9.995066e-01 2.529615e-01 2.529830e-01 -9.894595e-05 -7.027547e-01 0 -5.705978e-01 1.312241e-03 1.129467e+01 
1 2.344394e-01 2.345958e-01 -9.901826e-05 2.288486e+00 0 2.285436e+00 1.312241e-03 1.129467e+01 
ZONE T="0.003", I=101
-1 2.242112e-01 2.355382e-01 -1.058890e-04 5.575366e-01 0 -7.047499e+01 1.121494e-03 1.087645e+01 
-9.995066e-01 2.489759e-01 2.491394e-01 -1.058852e-04 -1.660664e-01 0 -2.459362e+01 1.121494e-03 1.087645e+01 
-9.980267e-01 2.996668e-01 2.993416e-01 -1.060459e-04 1.304735e-01 0 6.359687e+00 1.121494e-03 1.087645e+01 
-9.955620e-01 3.773425e-01 3.766576e-01 -1.060873e-04 -9.872990e-02 0 -3.539436e+00 1.121494e-03 1.087645e+01 
-9.921147e-01 4.749378e-01 4.749689e-01 -1.064170e-04 9.792559e-02 0 2.610856e+00 1.121494e-03 1.087645e+01 
-9.876883e-01 5.879617e-01 5.872507e-01 -1.065606e-04 -7.600890e-02 0 -2.009217e+00 1.121494e-03 1.087645e+01 
-9.822873e-01 7.101839e-01 7.105682e-01 -1.070649e-04 8.342910e-02 0 1.735264e+00 1.121494e-03 1.087645e+01 
-9.759168e-01 8.403293e-01 8.395328e-01 -1.073339e-04 -6.351895e-02 0 -1.469259e+00 1.121494e-03 1.087645e+01 
-9.685832e-01 9.733421e-01 9.740673e-01 -1.080178e-04 7.448830e-02 0 1.328498e+00 1.121494e-03 1.087645e+01 
-9.602937e-01 1.110254e+00 1.109313e+00 -1.084133e-04 -5.559037e-02 0 -1.173709e+00 1.121494e-03 1.087645e+01 
-9.510565e-01 1.246057e+00 1.247103e+00 -1.092704e-04 6.805521e-02 0 1.081373e+00 1.121494e-03 1.087645e+01 
-9.408808e-01 1.383377e+00 1.382253e+00 -1.097722e-04 -5.034271e-02 0 -9.780253e-01 1.121494e-03 1.087645e+01 
-9.297765e-01 1.516668e+00 1.518014e+00 -1.107831e-04 6.304194e-02 0 9.105316e-01 1.121494e-03 1.087645e+01 
-9.177546e-01 1.649835e+00 1.648506e+00 -1.113531e-04 -4.700282e-02 0 -8.357747e-01 1.121494e-03 1.087645e+01 
-9.048271e-01 1.776570e+00 1.778195e+00 -1.124873e-04 5.894477e-02 0 7.835841e-01 1.121494e-03 1.087645e+01 
-8.910065e-01 1.901930e+00 1.900387e+00 -1.130736e-04 -4.522011e-02 0 -7.269163e-01 1.121494e-03 1.087645e+01 
-8.763067e-01 2.018799e+00 2.020679e+00 -1.142921e-04 5.552297e-02 0 6.849829e-01 1.121494e-03 1.087645e+01 
-8.607420e-01 2.133328e+00 2.131573e+00 -1.148352e-04 -4.472999e-02 0 -6.409422e-01 1.121494e-03 1.087645e+01 
-8.443279e-01 2.237646e+00 2.239749e+00 -1.160953e-04 5.275051e-02 0 6.061925e-01 1.121494e-03 1.087645e+01 
-8.270806e-01 2.338954e+00 2.336996e+00 -1.165364e-04 -4.517073e-02 0 -5.714664e-01 1.121494e-03 1.087645e+01 
-8.090170e-01 2.428733e+00 2.431021e+00 -1.177984e-04 5.074499e-02 0 5.420032e-01 1.121494e-03 1.087645e+01 
-7.901550e-01 2.515174e+00 2.513033e+00 -1.180887e-04 -4.611212e-02 0 -5.141758e-01 1.121494e-03 1.087645e+01 
-7.705132e-01 2.589260e+00 2.591694e+00 -1.193220e-04 4.960343e-02 0 4.888650e-01 1.121494e-03 1.087645e+01 
-7.501111e-01 2.660081e+00 2.657783e+00 -1.194292e-04 -4.721729e-02 0 -4.660118e-01 1.121494e-03 1.087645e+01 
-7.289686e-01 2.718273e+00 2.720815e+00 -1.206146e-04 4.925658e-02 0 4.441068e-01 1.121494e-03 1.087645e+01 
-7.071068e-01 2.773705e+00 2.771286e+00 -1.205242e-04 -4.831953e-02 0 -4.247690e-01 1.121494e-03 1.087645e+01 
-6.845471e-01 2.816803e+00 2.819418e+00 -1.216516e-04 4.947635e-02 0 4.056520e-01 1.121494e-03 1.087645e+01 
-6.613119e-01 2.858052e+00 2.855547e+00 -1.213630e-04 -4.937176e-02 0 -3.888571e-01 1.121494e-03 1.087645e+01 
-6.374240e-01 2.887766e+00 2.890422e+00 -1.224276e-04 5.000631e-02 0 3.719811e-01 1.121494e-03 1.087645e+01 
-6.129071e-01 2.916852e+00 2.914294e+00 -1.219489e-04 -5.035752e-02 0 -3.571584e-01 1.121494e-03 1.087645e+01 
-5.877853e-01 2.935561e+00 2.938236e+00 -1.229483e-04 5.066036e-02 0 3.421029e-01 1.121494e-03 1.087645e+01 
-5.620834e-01 2.955018e+00 2.952432e+00 -1.222921e-04 -5.127138e-02 0 -3.289603e-01 1.121494e-03 1.087645e+01 
-5.358268e-01 2.965408e+00 2.968083e+00 -1.232250e-04 5.135163e-02 0 3.154665e-01 1.121494e-03 1.087645e+01 
-5.090414e-01 2.977884e+00 2.975289e+00 -1.224057e-04 -5.213607e-02 0 -3.038782e-01 1.121494e-03 1.087645e+01 
-4.817537e-01 2.982544e+00 2.985207e+00 -1.232720e-04 5.207185e-02 0 2.918144e-01 1.121494e-03 1.087645e+01 
-4.539905e-01 2.990425e+00 2.987832e+00 -1.223038e-04 -5.300182e-02 0 -2.817274e-01 1.121494e-03 1.087645e+01 
-4.257793e-01 2.991521e+00 2.994168e+00 -1.231047e-04 5.285317e-02 0 2.710192e-01 1.121494e-03 1.087645e+01 
-3.971479e-01 2.996677e+00 2.994093e+00 -1.220021e-04 -5.392656e-02 0 -2.623853e-01 1.121494e-03 1.087645e+01 
-3.681246e-01 2.995788e+00 2.998416e+00 -1.227396e-04 5.373256e-02 0 2.529539e-01 1.121494e-03 1.087645e+01 
-3.387379e-01 2.999494e+00 2.996921e+00 -1.215164e-04 -5.494899e-02 0 -2.456889e-01 1.121494e-03 1.087645e+01 
-3.090170e-01 2.997623e+00 3.000231e+00 -1.221932e-04 5.472926e-02 0 2.374258e-01 1.121494e-03 1.087645e+01 
-2.789911e-01 3.000635e+00 2.998074e+00 -1.208636e-04 -5.608254e-02 0 -2.314061e-01 1.121494e-03 1.087645e+01 
-2.486899e-01 2.998337e+00 3.000927e+00 -1.214824e-04 5.584219e-02 0 2.241758e-01 1.121494e-03 1.087645e+01 
-2.181432e-01 3.001049e+00 2.998501e+00 -1.200607e-04 -5.732000e-02 0 -2.192543e-01 1.121494e-03 1.087645e+01 
-1.873813e-01 2.998593e+00 3.001164e+00 -1.206244e-04 5.705725e-02 0 2.129129e-01 1.121494e-03 1.087645e+01 
-1.564345e-01 3.001181e+00 2.998648e+00 -1.191252e-04 -5.864494e-02 0 -2.089402e-01 1.121494e-03 1.087645e+01 
-1.253332e-01 2.998682e+00 3.001234e+00 -1.196365e-04 5.835711e-02 0 2.033524e-01 1.121494e-03 1.087645e+01 
-9.410831e-02 3.001217e+00 2.998697e+00 -1.180748e-04 -6.004035e-02 0 -2.001916e-01 1.121494e-03 1.087645e+01 
-6.279052e-02 2.998716e+00 3.001250e+00 -1.185364e-04 5.972573e-02 0 1.952396e-01 1.121494e-03 1.087645e+01 
-3.141076e-02 3.001221e+00 2.998717e+00 -1.169273e-04 -6.149060e-02 0 -1.927712e-01 1.121494e-03 1.087645e+01 
-1.110223e-16 2.998732e+00 3.001248e+00 -1.173419e-04 6.114834e-02 0 1.883561e-01 1.121494e-03 1.087645e+01 
3.141076e-02 3.001215e+00 2.998726e+00 -1.157006e-04 -6.298221e-02 0 -1.864798e-01 1.121494e-03 1.087645e+01 
6.279052e-02 2.998740e+00 3.001237e+00 -1.160711e-04 6.261283e-02 0 1.825214e-01 1.121494e-03 1.087645e+01 
9.410831e-02 3.001198e+00 2.998724e+00 -1.144126e-04 -6.450411e-02 0 -1.811537e-01 1.121494e-03 1.087645e+01 
1.253332e-01 2.998731e+00 3.001209e+00 -1.147422e-04 6.410877e-02 0 1.775875e-01 1.121494e-03 1.087645e+01 
1.564345e-01 3.001150e+00 2.998692e+00 -1.130811e-04 -6.604580e-02 0 -1.766597e-01 1.121494e-03 1.087645e+01 
1.873813e-01 2.998666e+00 3.001127e+00 -1.133734e-04 6.562511e-02 0 1.734346e-01 1.121494e-03 1.087645e+01 
2.181432e-01 3.001006e+00 2.998563e+00 -1.117239e-04 -6.759732e-02 0 -1.728932e-01 1.121494e-03 1.087645e+01 
2.486899e-01 2.998435e+00 3.000877e+00 -1.119828e-04 6.715233e-02 0 1.699740e-01 1.121494e-03 1.087645e+01 
2.789911e-01 3.000581e+00 2.998153e+00 -1.103584e-04 -6.914915e-02 0 -1.697823e-01 1.121494e-03 1.087645e+01 
3.090170e-01 2.997744e+00 3.000169e+00 -1.105882e-04 6.868140e-02 0 1.671529e-01 1.121494e-03 1.087645e+01 
3.387379e-01 2.999429e+00 2.997014e+00 -1.090018e-04 -7.069577e-02 0 -1.672998e-01 1.121494e-03 1.087645e+01 
3.681246e-01 2.995932e+00 2.998341e+00 -1.092072e-04 7.021148e-02 0 1.649731e-01 1.121494e-03 1.087645e+01 
3.971479e-01 2.996601e+00 2.994199e+00 -1.076710e-04 -7.224249e-02 0 -1.654814e-01 1.121494e-03 1.087645e+01 
4.257793e-01 2.991684e+00 2.994077e+00 -1.078569e-04 7.175676e-02 0 1.635074e-01 1.121494e-03 1.087645e+01 
4.539905e-01 2.990335e+00 2.987945e+00 -1.063825e-04 -7.381423e-02 0 -1.644405e-01 1.121494e-03 1.087645e+01 
4.817537e-01 2.982719e+00 2.985095e+00 -1.065537e-04 7.335772e-02 0 1.629078e-01 1.121494e-03 1.087645e+01 
5.090414e-01 2.977775e+00 2.975399e+00 -1.051525e-04 -7.546330e-02 0 -1.643625e-01 1.121494e-03 1.087645e+01 
5.358268e-01 2.965587e+00 2.967943e+00 -1.053131e-04 7.508205e-02 0 1.633788e-01 1.121494e-03 1.087645e+01 