TITLE = "2 species of PNP-Steric with high order term" 
VARIABLES = "X" "Conc1" "Conc2" "phi" "Current_x""I_ext" "I_PNP" "CURRENT" "ENERGY" "
ZONE T="3.0491e-05", I=11
-1 2.274204e+00 2.274066e+00 -1.000000e-04 4.796163e-14 0 4.796163e-14 2.907934e-15 1.318335e+01 
-9.340014e-01 3 3 -1.000000e-04 8.992806e-15 0 8.992806e-15 2.907934e-15 1.318335e+01 
-7.844835e-01 3 3 -1.000000e-04 -6.994405e-15 0 -6.994405e-15 2.907934e-15 1.318335e+01 
-5.652353e-01 3 3 -1.000000e-04 6.661338e-16 0 6.661338e-16 2.907934e-15 1.318335e+01 
-2.957581e-01 3 3 -1.000000e-04 -3.663736e-15 0 -3.663736e-15 2.907934e-15 1.318335e+01 
0 3 3 -1.000000e-04 -1.332268e-15 0 -1.332268e-15 2.907934e-15 1.318335e+01 
2.957581e-01 3 3 -1.000000e-04 9.992007e-15 0 9.992007e-15 2.907934e-15 1.318335e+01 
5.652353e-01 3 3 -1.000000e-04 -5.329071e-15 0 -5.329071e-15 2.907934e-15 1.318335e+01 
7.844835e-01 3 3 -1.000000e-04 1.332268e-14 0 1.332268e-14 2.907934e-15 1.318335e+01 
9.340014e-01 3 3 -1.000000e-04 -1.065814e-14 0 -1.065814e-14 2.907934e-15 1.318335e+01 
1 2.274204e+00 2.274066e+00 -1.000000e-04 4.263256e-14 0 4.263256e-14 2.907934e-15 1.318335e+01 
ZONE T="6.0981e-05", I=11
-1 1.788008e+00 1.787862e+00 -4.969038e-05 5.601476e-03 0 5.601476e-03 -4.537657e-15 1.307954e+01 
-9.340014e-01 2.996352e+00 2.996351e+00 -4.969038e-05 2.175675e-03 0 2.175675e-03 -4.537657e-15 1.307954e+01 
-7.844835e-01 3.000067e+00 3.000067e+00 -4.969038e-05 -4.641305e-04 0 -4.641305e-04 -4.537657e-15 1.307954e+01 
-5.652353e-01 3.000058e+00 3.000058e+00 -4.969038e-05 1.641704e-04 0 1.641704e-04 -4.537657e-15 1.307954e+01 
-2.957581e-01 2.999939e+00 2.999939e+00 -4.969038e-05 -5.956743e-05 0 -5.956743e-05 -4.537657e-15 1.307954e+01 
0 3.000060e+00 3.000060e+00 -4.969038e-05 -3.663736e-15 0 -3.663736e-15 -4.537657e-15 1.307954e+01 
2.957581e-01 2.999939e+00 2.999939e+00 -4.969038e-05 5.956743e-05 0 5.956743e-05 -4.537657e-15 1.307954e+01 
5.652353e-01 3.000058e+00 3.000058e+00 -4.969038e-05 -1.641704e-04 0 -1.641704e-04 -4.537657e-15 1.307954e+01 
7.844835e-01 3.000067e+00 3.000067e+00 -4.969038e-05 4.641305e-04 0 4.641305e-04 -4.537657e-15 1.307954e+01 
9.340014e-01 2.996352e+00 2.996351e+00 -4.969038e-05 -2.175675e-03 0 -2.175675e-03 -4.537657e-15 1.307954e+01 
1 1.788008e+00 1.787862e+00 -4.969038e-05 -5.601476e-03 0 -5.601476e-03 -4.537657e-15 1.307954e+01 
ZONE T="9.1472e-05", I=11
-1 1.451890e+00 1.451748e+00 -4.708914e-05 3.942743e-03 0 3.942743e-03 -8.433155e-15 1.301600e+01 
-9.340014e-01 2.990927e+00 2.990926e+00 -4.708162e-05 2.919887e-03 0 2.919887e-03 -8.433155e-15 1.301600e+01 
-7.844835e-01 2.999840e+00 2.999840e+00 -4.707978e-05 -6.181790e-04 0 -6.181790e-04 -8.433155e-15 1.301600e+01 
-5.652353e-01 3.000337e+00 3.000337e+00 -4.708127e-05 2.190855e-04 0 2.190855e-04 -8.433155e-15 1.301600e+01 
-2.957581e-01 2.999707e+00 2.999706e+00 -4.707993e-05 -7.954912e-05 0 -7.954912e-05 -8.433155e-15 1.301600e+01 
0 3.000275e+00 3.000275e+00 -4.708121e-05 -2.997662e-15 0 -2.997662e-15 -8.433155e-15 1.301600e+01 
2.957581e-01 2.999707e+00 2.999706e+00 -4.707993e-05 7.954912e-05 0 7.954912e-05 -8.433155e-15 1.301600e+01 
5.652353e-01 3.000337e+00 3.000337e+00 -4.708127e-05 -2.190855e-04 0 -2.190855e-04 -8.433155e-15 1.301600e+01 
7.844835e-01 2.999840e+00 2.999840e+00 -4.707978e-05 6.181790e-04 0 6.181790e-04 -8.433155e-15 1.301600e+01 
9.340014e-01 2.990927e+00 2.990926e+00 -4.708162e-05 -2.919887e-03 0 -2.919887e-03 -8.433155e-15 1.301600e+01 
1 1.451890e+00 1.451748e+00 -4.708914e-05 -3.942743e-03 0 -3.942743e-03 -8.433155e-15 1.301600e+01 
ZONE T="0.00012196", I=11
-1 1.213415e+00 1.213280e+00 -4.880679e-05 2.169441e-03 0 2.169441e-03 -1.163647e-15 1.297476e+01 
-9.340014e-01 2.984664e+00 2.984663e+00 -4.879195e-05 3.459534e-03 0 3.459534e-03 -1.163647e-15 1.297476e+01 
-7.844835e-01 2.999187e+00 2.999187e+00 -4.878620e-05 -7.301591e-04 0 -7.301591e-04 -1.163647e-15 1.297476e+01 
-5.652353e-01 3.000891e+00 3.000891e+00 -4.879084e-05 2.596517e-04 0 2.596517e-04 -1.163647e-15 1.297476e+01 
-2.957581e-01 2.999269e+00 2.999269e+00 -4.878668e-05 -9.432944e-05 0 -9.432944e-05 -1.163647e-15 1.297476e+01 
0 3.000678e+00 3.000678e+00 -4.879064e-05 6.661950e-15 0 6.661950e-15 -1.163647e-15 1.297476e+01 
2.957581e-01 2.999269e+00 2.999269e+00 -4.878668e-05 9.432944e-05 0 9.432944e-05 -1.163647e-15 1.297476e+01 
5.652353e-01 3.000891e+00 3.000891e+00 -4.879084e-05 -2.596517e-04 0 -2.596517e-04 -1.163647e-15 1.297476e+01 
7.844835e-01 2.999187e+00 2.999187e+00 -4.878620e-05 7.301591e-04 0 7.301591e-04 -1.163647e-15 1.297476e+01 
9.340014e-01 2.984664e+00 2.984663e+00 -4.879195e-05 -3.459534e-03 0 -3.459534e-03 -1.163647e-15 1.297476e+01 
1 1.213415e+00 1.213280e+00 -4.880679e-05 -2.169441e-03 0 -2.169441e-03 -1.163647e-15 1.297476e+01 
ZONE T="0.00015245", I=11
-1 1.040575e+00 1.040448e+00 -5.100172e-05 7.282229e-04 0 7.282229e-04 2.328426e-15 1.294629e+01 
-9.340014e-01 2.978038e+00 2.978037e+00 -5.098017e-05 3.907784e-03 0 3.907784e-03 2.328426e-15 1.294629e+01 
-7.844835e-01 2.998079e+00 2.998078e+00 -5.096879e-05 -8.237816e-04 0 -8.237816e-04 2.328426e-15 1.294629e+01 
-5.652353e-01 3.001721e+00 3.001722e+00 -5.097794e-05 2.942759e-04 0 2.942759e-04 2.328426e-15 1.294629e+01 
-2.957581e-01 2.998626e+00 2.998626e+00 -5.096972e-05 -1.069309e-04 0 -1.069309e-04 2.328426e-15 1.294629e+01 
0 3.001267e+00 3.001267e+00 -5.097756e-05 -6.329701e-15 0 -6.329701e-15 2.328426e-15 1.294629e+01 
2.957581e-01 2.998626e+00 2.998626e+00 -5.096972e-05 1.069309e-04 0 1.069309e-04 2.328426e-15 1.294629e+01 
5.652353e-01 3.001721e+00 3.001722e+00 -5.097794e-05 -2.942759e-04 0 -2.942759e-04 2.328426e-15 1.294629e+01 
7.844835e-01 2.998079e+00 2.998078e+00 -5.096879e-05 8.237816e-04 0 8.237816e-04 2.328426e-15 1.294629e+01 
9.340014e-01 2.978038e+00 2.978037e+00 -5.098017e-05 -3.907784e-03 0 -3.907784e-03 2.328426e-15 1.294629e+01 
1 1.040575e+00 1.040448e+00 -5.100172e-05 -7.282229e-04 0 -7.282229e-04 2.328426e-15 1.294629e+01 
ZONE T="0.00018294", I=11
-1 9.131006e-01 9.129809e-01 -5.297634e-05 -3.808474e-04 0 -3.808474e-04 -3.110111e-15 1.292534e+01 
-9.340014e-01 2.971292e+00 2.971291e+00 -5.294856e-05 4.281056e-03 0 4.281056e-03 -3.110111e-15 1.292534e+01 
-7.844835e-01 2.996538e+00 2.996537e+00 -5.293012e-05 -9.019386e-04 0 -9.019386e-04 -3.110111e-15 1.292534e+01 
-5.652353e-01 3.002810e+00 3.002811e+00 -5.294493e-05 3.239626e-04 0 3.239626e-04 -3.110111e-15 1.292534e+01 
-2.957581e-01 2.997793e+00 2.997793e+00 -5.293162e-05 -1.177034e-04 0 -1.177034e-04 -3.110111e-15 1.292534e+01 
0 3.002028e+00 3.002028e+00 -5.294430e-05 1.066264e-14 0 1.066264e-14 -3.110111e-15 1.292534e+01 
2.957581e-01 2.997793e+00 2.997793e+00 -5.293162e-05 1.177034e-04 0 1.177034e-04 -3.110111e-15 1.292534e+01 
5.652353e-01 3.002810e+00 3.002811e+00 -5.294493e-05 -3.239626e-04 0 -3.239626e-04 -3.110111e-15 1.292534e+01 
7.844835e-01 2.996538e+00 2.996537e+00 -5.293012e-05 9.019386e-04 0 9.019386e-04 -3.110111e-15 1.292534e+01 
9.340014e-01 2.971292e+00 2.971291e+00 -5.294856e-05 -4.281056e-03 0 -4.281056e-03 -3.110111e-15 1.292534e+01 
1 9.131006e-01 9.129809e-01 -5.297634e-05 3.808474e-04 0 3.808474e-04 -3.110111e-15 1.292534e+01 
ZONE T="0.00021343", I=11
-1 8.177337e-01 8.176206e-01 -5.458338e-05 -1.211895e-03 0 -1.211895e-03 -1.102854e-14 1.290891e+01 
-9.340014e-01 2.964547e+00 2.964545e+00 -5.454969e-05 4.580892e-03 0 4.580892e-03 -1.102854e-14 1.290891e+01 
-7.844835e-01 2.994608e+00 2.994607e+00 -5.452305e-05 -9.645226e-04 0 -9.645226e-04 -1.102854e-14 1.290891e+01 
-5.652353e-01 3.004127e+00 3.004128e+00 -5.454443e-05 3.486235e-04 0 3.486235e-04 -1.102854e-14 1.290891e+01 
-2.957581e-01 2.996793e+00 2.996792e+00 -5.452520e-05 -1.266091e-04 0 -1.266091e-04 -1.102854e-14 1.290891e+01 
0 3.002941e+00 3.002941e+00 -5.454353e-05 -1.499814e-15 0 -1.499814e-15 -1.102854e-14 1.290891e+01 
2.957581e-01 2.996793e+00 2.996792e+00 -5.452520e-05 1.266091e-04 0 1.266091e-04 -1.102854e-14 1.290891e+01 
5.652353e-01 3.004127e+00 3.004128e+00 -5.454443e-05 -3.486235e-04 0 -3.486235e-04 -1.102854e-14 1.290891e+01 
7.844835e-01 2.994608e+00 2.994607e+00 -5.452305e-05 9.645226e-04 0 9.645226e-04 -1.102854e-14 1.290891e+01 
9.340014e-01 2.964547e+00 2.964545e+00 -5.454969e-05 -4.580892e-03 0 -4.580892e-03 -1.102854e-14 1.290891e+01 
1 8.177337e-01 8.176206e-01 -5.458338e-05 1.211895e-03 0 1.211895e-03 -1.102854e-14 1.290891e+01 
ZONE T="0.00024393", I=11
-1 7.455486e-01 7.454415e-01 -5.581329e-05 -1.820724e-03 0 -1.820724e-03 -1.174432e-14 1.289526e+01 
-9.340014e-01 2.957858e+00 2.957857e+00 -5.577390e-05 4.808405e-03 0 4.808405e-03 -1.174432e-14 1.289526e+01 
-7.844835e-01 2.992341e+00 2.992339e+00 -5.573817e-05 -1.011505e-03 0 -1.011505e-03 -1.174432e-14 1.289526e+01 
-5.652353e-01 3.005641e+00 3.005642e+00 -5.576683e-05 3.681758e-04 0 3.681758e-04 -1.174432e-14 1.289526e+01 
-2.957581e-01 2.995647e+00 2.995646e+00 -5.574102e-05 -1.336190e-04 0 -1.336190e-04 -1.174432e-14 1.289526e+01 
0 3.003984e+00 3.003985e+00 -5.576563e-05 -2.167057e-14 0 -2.167057e-14 -1.174432e-14 1.289526e+01 
2.957581e-01 2.995647e+00 2.995646e+00 -5.574102e-05 1.336190e-04 0 1.336190e-04 -1.174432e-14 1.289526e+01 
5.652353e-01 3.005641e+00 3.005642e+00 -5.576683e-05 -3.681758e-04 0 -3.681758e-04 -1.174432e-14 1.289526e+01 
7.844835e-01 2.992341e+00 2.992339e+00 -5.573817e-05 1.011505e-03 0 1.011505e-03 -1.174432e-14 1.289526e+01 
9.340014e-01 2.957858e+00 2.957857e+00 -5.577390e-05 -4.808405e-03 0 -4.808405e-03 -1.174432e-14 1.289526e+01 
1 7.455486e-01 7.454415e-01 -5.581329e-05 1.820724e-03 0 1.820724e-03 -1.174432e-14 1.289526e+01 
ZONE T="0.00027442", I=11
-1 6.903830e-01 6.902814e-01 -5.669703e-05 -2.255809e-03 0 -2.255809e-03 -8.986870e-15 1.288335e+01 
-9.340014e-01 2.951249e+00 2.951247e+00 -5.665209e-05 4.967425e-03 0 4.967425e-03 -8.986870e-15 1.288335e+01 
-7.844835e-01 2.989787e+00 2.989784e+00 -5.660659e-05 -1.043571e-03 0 -1.043571e-03 -8.986870e-15 1.288335e+01 
-5.652353e-01 3.007319e+00 3.007320e+00 -5.664305e-05 3.827766e-04 0 3.827766e-04 -8.986870e-15 1.288335e+01 
-2.957581e-01 2.994381e+00 2.994379e+00 -5.661017e-05 -1.387952e-04 0 -1.387952e-04 -8.986870e-15 1.288335e+01 
0 3.005138e+00 3.005139e+00 -5.664152e-05 -1.267335e-14 0 -1.267335e-14 -8.986870e-15 1.288335e+01 
2.957581e-01 2.994381e+00 2.994379e+00 -5.661017e-05 1.387952e-04 0 1.387952e-04 -8.986870e-15 1.288335e+01 
5.652353e-01 3.007319e+00 3.007320e+00 -5.664305e-05 -3.827766e-04 0 -3.827766e-04 -8.986870e-15 1.288335e+01 
7.844835e-01 2.989787e+00 2.989784e+00 -5.660659e-05 1.043571e-03 0 1.043571e-03 -8.986870e-15 1.288335e+01 
9.340014e-01 2.951249e+00 2.951247e+00 -5.665209e-05 -4.967425e-03 0 -4.967425e-03 -8.986870e-15 1.288335e+01 
1 6.903830e-01 6.902814e-01 -5.669703e-05 2.255809e-03 0 2.255809e-03 -8.986870e-15 1.288335e+01 
ZONE T="0.00030491", I=11
-1 6.478869e-01 6.477902e-01 -5.727678e-05 -2.557248e-03 0 -2.557248e-03 -6.202985e-15 1.287252e+01 
-9.340014e-01 2.944724e+00 2.944723e+00 -5.722640e-05 5.064644e-03 0 5.064644e-03 -6.202985e-15 1.287252e+01 
-7.844835e-01 2.986994e+00 2.986991e+00 -5.717066e-05 -1.062107e-03 0 -1.062107e-03 -6.202985e-15 1.287252e+01 
-5.652353e-01 3.009134e+00 3.009135e+00 -5.721528e-05 3.928289e-04 0 3.928289e-04 -6.202985e-15 1.287252e+01 
-2.957581e-01 2.993014e+00 2.993012e+00 -5.717499e-05 -1.422913e-04 0 -1.422913e-04 -6.202985e-15 1.287252e+01 
0 3.006382e+00 3.006383e+00 -5.721341e-05 1.167731e-15 0 1.167731e-15 -6.202985e-15 1.287252e+01 
2.957581e-01 2.993014e+00 2.993012e+00 -5.717499e-05 1.422913e-04 0 1.422913e-04 -6.202985e-15 1.287252e+01 
5.652353e-01 3.009134e+00 3.009135e+00 -5.721528e-05 -3.928289e-04 0 -3.928289e-04 -6.202985e-15 1.287252e+01 
7.844835e-01 2.986994e+00 2.986991e+00 -5.717066e-05 1.062107e-03 0 1.062107e-03 -6.202985e-15 1.287252e+01 
9.340014e-01 2.944724e+00 2.944723e+00 -5.722640e-05 -5.064644e-03 0 -5.064644e-03 -6.202985e-15 1.287252e+01 
1 6.478869e-01 6.477902e-01 -5.727678e-05 2.557248e-03 0 2.557248e-03 -6.202985e-15 1.287252e+01 
ZONE T="0.0003354", I=11
-1 6.149297e-01 6.148375e-01 -5.759567e-05 -2.757417e-03 0 -2.757417e-03 -1.102052e-14 1.286241e+01 
-9.340014e-01 2.938282e+00 2.938281e+00 -5.753994e-05 5.108740e-03 0 5.108740e-03 -1.102052e-14 1.286241e+01 
-7.844835e-01 2.984006e+00 2.984003e+00 -5.747365e-05 -1.068986e-03 0 -1.068986e-03 -1.102052e-14 1.286241e+01 
-5.652353e-01 3.011059e+00 3.011061e+00 -5.752667e-05 3.989121e-04 0 3.989121e-04 -1.102052e-14 1.286241e+01 
-2.957581e-01 2.991565e+00 2.991564e+00 -5.747873e-05 -1.443254e-04 0 -1.443254e-04 -1.102052e-14 1.286241e+01 
0 3.007700e+00 3.007702e+00 -5.752445e-05 -4.339083e-15 0 -4.339083e-15 -1.102052e-14 1.286241e+01 
2.957581e-01 2.991565e+00 2.991564e+00 -5.747873e-05 1.443254e-04 0 1.443254e-04 -1.102052e-14 1.286241e+01 
5.652353e-01 3.011059e+00 3.011061e+00 -5.752667e-05 -3.989121e-04 0 -3.989121e-04 -1.102052e-14 1.286241e+01 
7.844835e-01 2.984006e+00 2.984003e+00 -5.747365e-05 1.068986e-03 0 1.068986e-03 -1.102052e-14 1.286241e+01 
9.340014e-01 2.938282e+00 2.938281e+00 -5.753994e-05 -5.108740e-03 0 -5.108740e-03 -1.102052e-14 1.286241e+01 
1 6.149297e-01 6.148375e-01 -5.759567e-05 2.757417e-03 0 2.757417e-03 -1.102052e-14 1.286241e+01 
ZONE T="0.00036589", I=11
-1 5.892217e-01 5.891334e-01 -5.769392e-05 -2.881996e-03 0 -2.881996e-03 -1.587847e-14 1.285275e+01 
-9.340014e-01 2.931915e+00 2.931914e+00 -5.763293e-05 5.109265e-03 0 5.109265e-03 -1.587847e-14 1.285275e+01 
-7.844835e-01 2.980861e+00 2.980857e+00 -5.755593e-05 -1.066297e-03 0 -1.066297e-03 -1.587847e-14 1.285275e+01 
-5.652353e-01 3.013072e+00 3.013074e+00 -5.761745e-05 4.016934e-04 0 4.016934e-04 -1.587847e-14 1.285275e+01 
-2.957581e-01 2.990051e+00 2.990050e+00 -5.756173e-05 -1.451470e-04 0 -1.451470e-04 -1.587847e-14 1.285275e+01 
0 3.009078e+00 3.009079e+00 -5.761487e-05 -5.509708e-15 0 -5.509708e-15 -1.587847e-14 1.285275e+01 
2.957581e-01 2.990051e+00 2.990050e+00 -5.756173e-05 1.451470e-04 0 1.451470e-04 -1.587847e-14 1.285275e+01 
5.652353e-01 3.013072e+00 3.013074e+00 -5.761745e-05 -4.016934e-04 0 -4.016934e-04 -1.587847e-14 1.285275e+01 
7.844835e-01 2.980861e+00 2.980857e+00 -5.755593e-05 1.066297e-03 0 1.066297e-03 -1.587847e-14 1.285275e+01 
9.340014e-01 2.931915e+00 2.931914e+00 -5.763293e-05 -5.109265e-03 0 -5.109265e-03 -1.587847e-14 1.285275e+01 
1 5.892217e-01 5.891334e-01 -5.769392e-05 2.881996e-03 0 2.881996e-03 -1.587847e-14 1.285275e+01 
ZONE T="0.00039638", I=11
-1 5.690641e-01 5.689794e-01 -5.760752e-05 -2.951020e-03 0 -2.951020e-03 -1.245275e-14 1.284340e+01 
-9.340014e-01 2.925616e+00 2.925616e+00 -5.754137e-05 5.075643e-03 0 5.075643e-03 -1.245275e-14 1.284340e+01 
-7.844835e-01 2.977589e+00 2.977585e+00 -5.745360e-05 -1.056119e-03 0 -1.056119e-03 -1.245275e-14 1.284340e+01 
-5.652353e-01 3.015154e+00 3.015157e+00 -5.752364e-05 4.018488e-04 0 4.018488e-04 -1.245275e-14 1.284340e+01 
-2.957581e-01 2.988486e+00 2.988484e+00 -5.746011e-05 -1.450079e-04 0 -1.450079e-04 -1.245275e-14 1.284340e+01 
0 3.010502e+00 3.010503e+00 -5.752071e-05 -1.578503e-14 0 -1.578503e-14 -1.245275e-14 1.284340e+01 
2.957581e-01 2.988486e+00 2.988484e+00 -5.746011e-05 1.450079e-04 0 1.450079e-04 -1.245275e-14 1.284340e+01 
5.652353e-01 3.015154e+00 3.015157e+00 -5.752364e-05 -4.018488e-04 0 -4.018488e-04 -1.245275e-14 1.284340e+01 
7.844835e-01 2.977589e+00 2.977585e+00 -5.745360e-05 1.056119e-03 0 1.056119e-03 -1.245275e-14 1.284340e+01 
9.340014e-01 2.925616e+00 2.925616e+00 -5.754137e-05 -5.075643e-03 0 -5.075643e-03 -1.245275e-14 1.284340e+01 
1 5.690641e-01 5.689794e-01 -5.760752e-05 2.951020e-03 0 2.951020e-03 -1.245275e-14 1.284340e+01 
ZONE T="0.00042687", I=11
-1 5.531826e-01 5.531011e-01 -5.736801e-05 -2.979876e-03 0 -2.979876e-03 -1.798619e-14 1.283426e+01 
-9.340014e-01 2.919377e+00 2.919377e+00 -5.729680e-05 5.016467e-03 0 5.016467e-03 -1.798619e-14 1.283426e+01 
-7.844835e-01 2.974218e+00 2.974214e+00 -5.719828e-05 -1.040354e-03 0 -1.040354e-03 -1.798619e-14 1.283426e+01 
-5.652353e-01 3.017290e+00 3.017293e+00 -5.727680e-05 4.000051e-04 0 4.000051e-04 -1.798619e-14 1.283426e+01 
-2.957581e-01 2.986880e+00 2.986878e+00 -5.720547e-05 -1.441403e-04 0 -1.441403e-04 -1.798619e-14 1.283426e+01 
0 3.011962e+00 3.011964e+00 -5.727351e-05 8.188707e-15 0 8.188707e-15 -1.798619e-14 1.283426e+01 
2.957581e-01 2.986880e+00 2.986878e+00 -5.720547e-05 1.441403e-04 0 1.441403e-04 -1.798619e-14 1.283426e+01 
5.652353e-01 3.017290e+00 3.017293e+00 -5.727680e-05 -4.000051e-04 0 -4.000051e-04 -1.798619e-14 1.283426e+01 
7.844835e-01 2.974218e+00 2.974214e+00 -5.719828e-05 1.040354e-03 0 1.040354e-03 -1.798619e-14 1.283426e+01 
9.340014e-01 2.919377e+00 2.919377e+00 -5.729680e-05 -5.016467e-03 0 -5.016467e-03 -1.798619e-14 1.283426e+01 
1 5.531826e-01 5.531011e-01 -5.736801e-05 2.979876e-03 0 2.979876e-03 -1.798619e-14 1.283426e+01 
ZONE T="0.00045736", I=11
-1 5.406113e-01 5.405326e-01 -5.700264e-05 -2.980193e-03 0 -2.980193e-03 -7.770409e-16 1.282528e+01 
-9.340014e-01 2.913191e+00 2.913191e+00 -5.692649e-05 4.939095e-03 0 4.939095e-03 -7.770409e-16 1.282528e+01 
-7.844835e-01 2.970770e+00 2.970765e+00 -5.681732e-05 -1.020633e-03 0 -1.020633e-03 -7.770409e-16 1.282528e+01 
-5.652353e-01 3.019467e+00 3.019470e+00 -5.690420e-05 3.967063e-04 0 3.967063e-04 -7.770409e-16 1.282528e+01 
-2.957581e-01 2.985244e+00 2.985242e+00 -5.682515e-05 -1.427453e-04 0 -1.427453e-04 -7.770409e-16 1.282528e+01 
0 3.013451e+00 3.013453e+00 -5.690056e-05 5.015946e-16 0 5.015946e-16 -7.770409e-16 1.282528e+01 
2.957581e-01 2.985244e+00 2.985242e+00 -5.682515e-05 1.427453e-04 0 1.427453e-04 -7.770409e-16 1.282528e+01 
5.652353e-01 3.019467e+00 3.019470e+00 -5.690420e-05 -3.967063e-04 0 -3.967063e-04 -7.770409e-16 1.282528e+01 
7.844835e-01 2.970770e+00 2.970765e+00 -5.681732e-05 1.020633e-03 0 1.020633e-03 -7.770409e-16 1.282528e+01 
9.340014e-01 2.913191e+00 2.913191e+00 -5.692649e-05 -4.939095e-03 0 -4.939095e-03 -7.770409e-16 1.282528e+01 
1 5.406113e-01 5.405326e-01 -5.700264e-05 2.980193e-03 0 2.980193e-03 -7.770409e-16 1.282528e+01 
ZONE T="0.00048785", I=11
-1 5.306129e-01 5.305369e-01 -5.653481e-05 -2.960629e-03 0 -2.960629e-03 -1.460878e-14 1.281640e+01 
-9.340014e-01 2.907052e+00 2.907052e+00 -5.645383e-05 4.849514e-03 0 4.849514e-03 -1.460878e-14 1.281640e+01 
-7.844835e-01 2.967262e+00 2.967257e+00 -5.633414e-05 -9.982867e-04 0 -9.982867e-04 -1.460878e-14 1.281640e+01 
-5.652353e-01 3.021674e+00 3.021677e+00 -5.642925e-05 3.923998e-04 0 3.923998e-04 -1.460878e-14 1.281640e+01 
-2.957581e-01 2.983585e+00 2.983583e+00 -5.634257e-05 -1.409875e-04 0 -1.409875e-04 -1.460878e-14 1.281640e+01 
0 3.014960e+00 3.014962e+00 -5.642527e-05 1.254603e-15 0 1.254603e-15 -1.460878e-14 1.281640e+01 
2.957581e-01 2.983585e+00 2.983583e+00 -5.634257e-05 1.409875e-04 0 1.409875e-04 -1.460878e-14 1.281640e+01 
5.652353e-01 3.021674e+00 3.021677e+00 -5.642925e-05 -3.923998e-04 0 -3.923998e-04 -1.460878e-14 1.281640e+01 
7.844835e-01 2.967262e+00 2.967257e+00 -5.633414e-05 9.982867e-04 0 9.982867e-04 -1.460878e-14 1.281640e+01 
9.340014e-01 2.907052e+00 2.907052e+00 -5.645383e-05 -4.849514e-03 0 -4.849514e-03 -1.460878e-14 1.281640e+01 
1 5.306129e-01 5.305369e-01 -5.653481e-05 2.960629e-03 0 2.960629e-03 -1.460878e-14 1.281640e+01 
ZONE T="0.00051834", I=11
-1 5.226210e-01 5.225472e-01 -5.598447e-05 -2.927535e-03 0 -2.927535e-03 -1.385341e-14 1.280760e+01 
-9.340014e-01 2.900955e+00 2.900955e+00 -5.589877e-05 4.752387e-03 0 4.752387e-03 -1.385341e-14 1.280760e+01 
-7.844835e-01 2.963710e+00 2.963704e+00 -5.576874e-05 -9.743517e-04 0 -9.743517e-04 -1.385341e-14 1.280760e+01 
-5.652353e-01 3.023901e+00 3.023905e+00 -5.587190e-05 3.874376e-04 0 3.874376e-04 -1.385341e-14 1.280760e+01 
-2.957581e-01 2.981909e+00 2.981907e+00 -5.577772e-05 -1.389961e-04 0 -1.389961e-04 -1.385341e-14 1.280760e+01 
0 3.016485e+00 3.016487e+00 -5.586758e-05 4.016735e-15 0 4.016735e-15 -1.385341e-14 1.280760e+01 
2.957581e-01 2.981909e+00 2.981907e+00 -5.577772e-05 1.389961e-04 0 1.389961e-04 -1.385341e-14 1.280760e+01 
5.652353e-01 3.023901e+00 3.023905e+00 -5.587190e-05 -3.874376e-04 0 -3.874376e-04 -1.385341e-14 1.280760e+01 
7.844835e-01 2.963710e+00 2.963704e+00 -5.576874e-05 9.743517e-04 0 9.743517e-04 -1.385341e-14 1.280760e+01 
9.340014e-01 2.900955e+00 2.900955e+00 -5.589877e-05 -4.752387e-03 0 -4.752387e-03 -1.385341e-14 1.280760e+01 
1 5.226210e-01 5.225472e-01 -5.598447e-05 2.927535e-03 0 2.927535e-03 -1.385341e-14 1.280760e+01 
ZONE T="0.00054883", I=11
-1 5.161977e-01 5.161260e-01 -5.536855e-05 -2.885503e-03 0 -2.885503e-03 -2.773755e-15 1.279888e+01 
-9.340014e-01 2.894895e+00 2.894896e+00 -5.527824e-05 4.651205e-03 0 4.651205e-03 -2.773755e-15 1.279888e+01 
-7.844835e-01 2.960125e+00 2.960118e+00 -5.513805e-05 -9.496039e-04 0 -9.496039e-04 -2.773755e-15 1.279888e+01 
-5.652353e-01 3.026144e+00 3.026147e+00 -5.524910e-05 3.820859e-04 0 3.820859e-04 -2.773755e-15 1.279888e+01 
-2.957581e-01 2.980222e+00 2.980219e+00 -5.514754e-05 -1.368687e-04 0 -1.368687e-04 -2.773755e-15 1.279888e+01 
0 3.018020e+00 3.018022e+00 -5.524444e-05 6.781671e-15 0 6.781671e-15 -2.773755e-15 1.279888e+01 
2.957581e-01 2.980222e+00 2.980219e+00 -5.514754e-05 1.368687e-04 0 1.368687e-04 -2.773755e-15 1.279888e+01 
5.652353e-01 3.026144e+00 3.026147e+00 -5.524910e-05 -3.820859e-04 0 -3.820859e-04 -2.773755e-15 1.279888e+01 
7.844835e-01 2.960125e+00 2.960118e+00 -5.513805e-05 9.496039e-04 0 9.496039e-04 -2.773755e-15 1.279888e+01 
9.340014e-01 2.894895e+00 2.894896e+00 -5.527824e-05 -4.651205e-03 0 -4.651205e-03 -2.773755e-15 1.279888e+01 
1 5.161977e-01 5.161260e-01 -5.536855e-05 2.885503e-03 0 2.885503e-03 -2.773755e-15 1.279888e+01 
ZONE T="0.00057932", I=11
-1 5.110035e-01 5.109338e-01 -5.470134e-05 -2.837807e-03 0 -2.837807e-03 -1.219515e-14 1.279021e+01 
-9.340014e-01 2.888869e+00 2.888870e+00 -5.460654e-05 4.548483e-03 0 4.548483e-03 -1.219515e-14 1.279021e+01 
-7.844835e-01 2.956517e+00 2.956510e+00 -5.445639e-05 -9.246025e-04 0 -9.246025e-04 -1.219515e-14 1.279021e+01 
-5.652353e-01 3.028394e+00 3.028398e+00 -5.457513e-05 3.765385e-04 0 3.765385e-04 -1.219515e-14 1.279021e+01 
-2.957581e-01 2.978528e+00 2.978525e+00 -5.446635e-05 -1.346757e-04 0 -1.346757e-04 -1.219515e-14 1.279021e+01 
0 3.019562e+00 3.019564e+00 -5.457015e-05 -1.675338e-14 0 -1.675338e-14 -1.219515e-14 1.279021e+01 
2.957581e-01 2.978528e+00 2.978525e+00 -5.446635e-05 1.346757e-04 0 1.346757e-04 -1.219515e-14 1.279021e+01 
5.652353e-01 3.028394e+00 3.028398e+00 -5.457513e-05 -3.765385e-04 0 -3.765385e-04 -1.219515e-14 1.279021e+01 
7.844835e-01 2.956517e+00 2.956510e+00 -5.445639e-05 9.246025e-04 0 9.246025e-04 -1.219515e-14 1.279021e+01 
9.340014e-01 2.888869e+00 2.888870e+00 -5.460654e-05 -4.548483e-03 0 -4.548483e-03 -1.219515e-14 1.279021e+01 
1 5.110035e-01 5.109338e-01 -5.470134e-05 2.837807e-03 0 2.837807e-03 -1.219515e-14 1.279021e+01 
ZONE T="0.00060981", I=11
-1 5.067742e-01 5.067063e-01 -5.399488e-05 -2.786747e-03 0 -2.786747e-03 -1.559562e-14 1.278159e+01 
-9.340014e-01 2.882874e+00 2.882875e+00 -5.389570e-05 4.445963e-03 0 4.445963e-03 -1.559562e-14 1.278159e+01 
-7.844835e-01 2.952893e+00 2.952885e+00 -5.373579e-05 -8.997346e-04 0 -8.997346e-04 -1.559562e-14 1.278159e+01 
-5.652353e-01 3.030649e+00 3.030654e+00 -5.386204e-05 3.709315e-04 0 3.709315e-04 -1.559562e-14 1.278159e+01 
-2.957581e-01 2.976829e+00 2.976826e+00 -5.374618e-05 -1.324667e-04 0 -1.324667e-04 -1.559562e-14 1.278159e+01 
0 3.021107e+00 3.021110e+00 -5.385674e-05 -1.449908e-14 0 -1.449908e-14 -1.559562e-14 1.278159e+01 
2.957581e-01 2.976829e+00 2.976826e+00 -5.374618e-05 1.324667e-04 0 1.324667e-04 -1.559562e-14 1.278159e+01 
5.652353e-01 3.030649e+00 3.030654e+00 -5.386204e-05 -3.709315e-04 0 -3.709315e-04 -1.559562e-14 1.278159e+01 
7.844835e-01 2.952893e+00 2.952885e+00 -5.373579e-05 8.997346e-04 0 8.997346e-04 -1.559562e-14 1.278159e+01 
9.340014e-01 2.882874e+00 2.882875e+00 -5.389570e-05 -4.445963e-03 0 -4.445963e-03 -1.559562e-14 1.278159e+01 
1 5.067742e-01 5.067063e-01 -5.399488e-05 2.786747e-03 0 2.786747e-03 -1.559562e-14 1.278159e+01 
ZONE T="0.0006403", I=11
-1 5.033035e-01 5.032372e-01 -5.325922e-05 -2.733914e-03 0 -2.733914e-03 -1.040979e-14 1.277302e+01 
-9.340014e-01 2.876908e+00 2.876909e+00 -5.315578e-05 4.344801e-03 0 4.344801e-03 -1.040979e-14 1.277302e+01 
-7.844835e-01 2.949259e+00 2.949251e+00 -5.298632e-05 -8.752561e-04 0 -8.752561e-04 -1.040979e-14 1.277302e+01 
-5.652353e-01 3.032905e+00 3.032910e+00 -5.311987e-05 3.653568e-04 0 3.653568e-04 -1.040979e-14 1.277302e+01 
-2.957581e-01 2.975129e+00 2.975126e+00 -5.299709e-05 -1.302747e-04 0 -1.302747e-04 -1.040979e-14 1.277302e+01 
0 3.022655e+00 3.022658e+00 -5.311426e-05 1.677052e-15 0 1.677052e-15 -1.040979e-14 1.277302e+01 
2.957581e-01 2.975129e+00 2.975126e+00 -5.299709e-05 1.302747e-04 0 1.302747e-04 -1.040979e-14 1.277302e+01 
5.652353e-01 3.032905e+00 3.032910e+00 -5.311987e-05 -3.653568e-04 0 -3.653568e-04 -1.040979e-14 1.277302e+01 
7.844835e-01 2.949259e+00 2.949251e+00 -5.298632e-05 8.752561e-04 0 8.752561e-04 -1.040979e-14 1.277302e+01 
9.340014e-01 2.876908e+00 2.876909e+00 -5.315578e-05 -4.344801e-03 0 -4.344801e-03 -1.040979e-14 1.277302e+01 
1 5.033035e-01 5.032372e-01 -5.325922e-05 2.733914e-03 0 2.733914e-03 -1.040979e-14 1.277302e+01 
ZONE T="0.00067079", I=11
-1 5.004301e-01 5.003653e-01 -5.250275e-05 -2.680389e-03 0 -2.680389e-03 -4.473608e-15 1.276449e+01 
-9.340014e-01 2.870969e+00 2.870969e+00 -5.239514e-05 4.245719e-03 0 4.245719e-03 -4.473608e-15 1.276449e+01 
-7.844835e-01 2.945620e+00 2.945612e+00 -5.221633e-05 -8.513261e-04 0 -8.513261e-04 -4.473608e-15 1.276449e+01 
-5.652353e-01 3.035159e+00 3.035163e+00 -5.235700e-05 3.598729e-04 0 3.598729e-04 -4.473608e-15 1.276449e+01 
-2.957581e-01 2.973429e+00 2.973426e+00 -5.222744e-05 -1.281209e-04 0 -1.281209e-04 -4.473608e-15 1.276449e+01 
0 3.024202e+00 3.024205e+00 -5.235109e-05 -3.062188e-14 0 -3.062188e-14 -4.473608e-15 1.276449e+01 
2.957581e-01 2.973429e+00 2.973426e+00 -5.222744e-05 1.281209e-04 0 1.281209e-04 -4.473608e-15 1.276449e+01 
5.652353e-01 3.035159e+00 3.035163e+00 -5.235700e-05 -3.598729e-04 0 -3.598729e-04 -4.473608e-15 1.276449e+01 
7.844835e-01 2.945620e+00 2.945612e+00 -5.221633e-05 8.513261e-04 0 8.513261e-04 -4.473608e-15 1.276449e+01 
9.340014e-01 2.870969e+00 2.870969e+00 -5.239514e-05 -4.245719e-03 0 -4.245719e-03 -4.473608e-15 1.276449e+01 
1 5.004301e-01 5.003653e-01 -5.250275e-05 2.680389e-03 0 2.680389e-03 -4.473608e-15 1.276449e+01 
ZONE T="0.00070129", I=11
-1 4.980275e-01 4.979641e-01 -5.173238e-05 -2.626895e-03 0 -2.626895e-03 -7.602995e-15 1.275600e+01 
-9.340014e-01 2.865054e+00 2.865055e+00 -5.162071e-05 4.149130e-03 0 4.149130e-03 -7.602995e-15 1.275600e+01 
-7.844835e-01 2.941981e+00 2.941972e+00 -5.143275e-05 -8.280351e-04 0 -8.280351e-04 -7.602995e-15 1.275600e+01 
-5.652353e-01 3.037408e+00 3.037413e+00 -5.158036e-05 3.545150e-04 0 3.545150e-04 -7.602995e-15 1.275600e+01 
-2.957581e-01 2.971732e+00 2.971728e+00 -5.144417e-05 -1.260176e-04 0 -1.260176e-04 -7.602995e-15 1.275600e+01 
0 3.025747e+00 3.025751e+00 -5.157415e-05 -4.196896e-16 0 -4.196896e-16 -7.602995e-15 1.275600e+01 
2.957581e-01 2.971732e+00 2.971728e+00 -5.144417e-05 1.260176e-04 0 1.260176e-04 -7.602995e-15 1.275600e+01 
5.652353e-01 3.037408e+00 3.037413e+00 -5.158036e-05 -3.545150e-04 0 -3.545150e-04 -7.602995e-15 1.275600e+01 
7.844835e-01 2.941981e+00 2.941972e+00 -5.143275e-05 8.280351e-04 0 8.280351e-04 -7.602995e-15 1.275600e+01 
9.340014e-01 2.865054e+00 2.865055e+00 -5.162071e-05 -4.149130e-03 0 -4.149130e-03 -7.602995e-15 1.275600e+01 
1 4.980275e-01 4.979641e-01 -5.173238e-05 2.626895e-03 0 2.626895e-03 -7.602995e-15 1.275600e+01 
ZONE T="0.00073178", I=11
-1 4.959965e-01 4.959343e-01 -5.095381e-05 -2.573899e-03 0 -2.573899e-03 -2.044319e-14 1.274755e+01 
-9.340014e-01 2.859164e+00 2.859165e+00 -5.083818e-05 4.055237e-03 0 4.055237e-03 -2.044319e-14 1.274755e+01 
-7.844835e-01 2.938343e+00 2.938334e+00 -5.064127e-05 -8.054260e-04 0 -8.054260e-04 -2.044319e-14 1.274755e+01 
-5.652353e-01 3.039651e+00 3.039656e+00 -5.079562e-05 3.493017e-04 0 3.493017e-04 -2.044319e-14 1.274755e+01 
-2.957581e-01 2.970038e+00 2.970034e+00 -5.065295e-05 -1.239714e-04 0 -1.239714e-04 -2.044319e-14 1.274755e+01 
0 3.027289e+00 3.027293e+00 -5.078913e-05 -1.704822e-14 0 -1.704822e-14 -2.044319e-14 1.274755e+01 
2.957581e-01 2.970038e+00 2.970034e+00 -5.065295e-05 1.239714e-04 0 1.239714e-04 -2.044319e-14 1.274755e+01 
5.652353e-01 3.039651e+00 3.039656e+00 -5.079562e-05 -3.493017e-04 0 -3.493017e-04 -2.044319e-14 1.274755e+01 
7.844835e-01 2.938343e+00 2.938334e+00 -5.064127e-05 8.054260e-04 0 8.054260e-04 -2.044319e-14 1.274755e+01 
9.340014e-01 2.859164e+00 2.859165e+00 -5.083818e-05 -4.055237e-03 0 -4.055237e-03 -2.044319e-14 1.274755e+01 
1 4.959965e-01 4.959343e-01 -5.095381e-05 2.573899e-03 0 2.573899e-03 -2.044319e-14 1.274755e+01 
ZONE T="0.00076227", I=11
-1 4.942590e-01 4.941981e-01 -5.017169e-05 -2.521696e-03 0 -2.521696e-03 -1.083677e-14 1.273914e+01 
-9.340014e-01 2.853296e+00 2.853297e+00 -5.005219e-05 3.964099e-03 0 3.964099e-03 -1.083677e-14 1.273914e+01 
-7.844835e-01 2.934710e+00 2.934701e+00 -4.984652e-05 -7.835101e-04 0 -7.835101e-04 -1.083677e-14 1.273914e+01 
-5.652353e-01 3.041886e+00 3.041892e+00 -5.000745e-05 3.442406e-04 0 3.442406e-04 -1.083677e-14 1.273914e+01 
-2.957581e-01 2.968349e+00 2.968344e+00 -4.985842e-05 -1.219846e-04 0 -1.219846e-04 -1.083677e-14 1.273914e+01 
0 3.028828e+00 3.028832e+00 -5.000067e-05 6.805970e-15 0 6.805970e-15 -1.083677e-14 1.273914e+01 
2.957581e-01 2.968349e+00 2.968344e+00 -4.985842e-05 1.219846e-04 0 1.219846e-04 -1.083677e-14 1.273914e+01 
5.652353e-01 3.041886e+00 3.041892e+00 -5.000745e-05 -3.442406e-04 0 -3.442406e-04 -1.083677e-14 1.273914e+01 
7.844835e-01 2.934710e+00 2.934701e+00 -4.984652e-05 7.835101e-04 0 7.835101e-04 -1.083677e-14 1.273914e+01 