TITLE = "2 species of PNP-Steric with high order term" 
VARIABLES = "X" "Conc1" "Conc2" "phi" "Current_x""I_ext" "I_PNP" "CURRENT" "ENERGY" "
ZONE T="0.0001", I=101
-1 3 3 -2.364857e+07 4.248839e+28 0 -4.123389e+20 1.181881e+25 5136934960791500 
-9.995066e-01 3 3 -2.361489e+07 2.485951e+27 0 -8552190846208192512 1.181881e+25 5136934960791500 
-9.980267e-01 3 3 -2.361612e+07 1.014054e+26 0 1989297937183144448 1.181881e+25 5136934960791500 
-9.955620e-01 3 3 -2.356684e+07 2.238687e+25 0 -1341557088305614336 1.181881e+25 5136934960791500 
-9.921147e-01 3 3 -2.354908e+07 7.468095e+24 0 753619002142706944 1.181881e+25 5136934960791500 
-9.876883e-01 3 3 -2.347821e+07 3.130309e+24 0 -627148242812939392 1.181881e+25 5136934960791500 
-9.822873e-01 3 3 -2.343822e+07 1.525824e+24 0 416370637831411520 1.181881e+25 5136934960791500 
-9.759168e-01 3 3 -2.334590e+07 8.269642e+23 0 -371776982313905792 1.181881e+25 5136934960791500 
-9.685832e-01 3 3 -2.328381e+07 4.848910e+23 0 267524455687349728 1.181881e+25 5136934960791500 
-9.602937e-01 3 3 -2.317028e+07 3.020077e+23 0 -247544166342801632 1.181881e+25 5136934960791500 
-9.510565e-01 3 3 -2.308642e+07 1.973044e+23 0 186800574798949056 1.181881e+25 5136934960791500 
-9.408808e-01 3 3 -2.295204e+07 1.339725e+23 0 -176526162387171872 1.181881e+25 5136934960791500 
-9.297765e-01 3 3 -2.284681e+07 9.390962e+22 0 137422273133551808 1.181881e+25 5136934960791500 
-9.177546e-01 3 3 -2.269202e+07 6.759997e+22 0 -131624577932078224 1.181881e+25 5136934960791500 
-9.048271e-01 3 3 -2.256592e+07 4.976949e+22 0 104713465814576336 1.181881e+25 5136934960791500 
-8.910065e-01 3 3 -2.239125e+07 3.735390e+22 0 -101200801746510800 1.181881e+25 5136934960791500 
-8.763067e-01 3 3 -2.224486e+07 2.850536e+22 0 81780833303062704 1.181881e+25 5136934960791500 
-8.607420e-01 3 3 -2.205092e+07 2.206865e+22 0 -79517885880630592 1.181881e+25 5136934960791500 
-8.443279e-01 3 3 -2.188488e+07 1.730227e+22 0 65003278420206784 1.181881e+25 5136934960791500 
-8.270806e-01 3 3 -2.167238e+07 1.371584e+22 0 -63457214686665176 1.181881e+25 5136934960791500 
-8.090170e-01 3 3 -2.148741e+07 1.097921e+22 0 52315837208271400 1.181881e+25 5136934960791500 
-7.901550e-01 3 3 -2.125712e+07 8.864012e+21 0 -51194341110458664 1.181881e+25 5136934960791500 
-7.705132e-01 3 3 -2.105401e+07 7.210686e+21 0 42464335334025592 1.181881e+25 5136934960791500 
-7.501111e-01 3 3 -2.080678e+07 5.904659e+21 0 -41599034209419448 1.181881e+25 5136934960791500 
-7.289686e-01 3 3 -2.058640e+07 4.863529e+21 0 34647987956293536 1.181881e+25 5136934960791500 
-7.071068e-01 3 3 -2.032313e+07 4.026198e+21 0 -33938194769274936 1.181881e+25 5136934960791500 
-6.845471e-01 3 3 -2.008641e+07 3.347718e+21 0 28334276941468800 1.181881e+25 5136934960791500 
-6.613119e-01 3 3 -1.980810e+07 2.793800e+21 0 -27718030306268056 1.181881e+25 5136934960791500 
-6.374240e-01 3 3 -1.955603e+07 2.338781e+21 0 23156928189816420 1.181881e+25 5136934960791500 
-6.129071e-01 3 3 -1.926370e+07 1.962566e+21 0 -22595280506089704 1.181881e+25 5136934960791500 
-5.877853e-01 3 3 -1.899733e+07 1.649920e+21 0 18856743004296900 1.181881e+25 5136934960791500 
-5.620834e-01 3 3 -1.869210e+07 1.388621e+21 0 -18324857348026292 1.181881e+25 5136934960791500 
-5.358268e-01 3 3 -1.841253e+07 1.169320e+21 0 15245783560846484 1.181881e+25 5136934960791500 
-5.090414e-01 3 3 -1.809554e+07 9.843404e+20 0 -14727701441778488 1.181881e+25 5136934960791500 
-4.817537e-01 3 3 -1.780394e+07 8.277745e+20 0 12184891121099910 1.181881e+25 5136934960791500 
-4.539905e-01 3 3 -1.747638e+07 6.946647e+20 0 -11670361208547110 1.181881e+25 5136934960791500 
-4.257793e-01 3 3 -1.717395e+07 5.811813e+20 0 9569124048553472 1.181881e+25 5136934960791500 
-3.971479e-01 3 3 -1.683707e+07 4.840437e+20 0 -9051628921158958 1.181881e+25 5136934960791500 
-3.681246e-01 3 3 -1.652505e+07 4.007113e+20 0 7318064580130912 1.181881e+25 5136934960791500 
-3.387379e-01 3 3 -1.618013e+07 3.289674e+20 0 -6793565094227540 1.181881e+25 5136934960791500 
-3.090170e-01 3 3 -1.585980e+07 2.670903e+20 0 5369209868246220 1.181881e+25 5136934960791500 
-2.789911e-01 3 3 -1.550815e+07 2.135552e+20 0 -4835330787331280 1.181881e+25 5136934960791500 
-2.486899e-01 3 3 -1.518083e+07 1.671720e+20 0 3673369239628518 1.181881e+25 5136934960791500 
-2.181432e-01 3 3 -1.482378e+07 1.268759e+20 0 -3.128863e+15 1.181881e+25 5136934960791500 
-1.873813e-01 3 3 -1.449082e+07 9.182803e+19 0 2.191398e+15 1.181881e+25 5136934960791500 
-1.564345e-01 3 3 -1.412973e+07 6.127639e+19 0 -1.635784e+15 1.181881e+25 5136934960791500 
-1.253332e-01 3 3 -1.379248e+07 3.461785e+19 0 8.918372e+14 1.181881e+25 5136934960791500 
-9.410831e-02 3 3 -1.342874e+07 1.131693e+19 0 -3.251637e+14 1.181881e+25 5136934960791500 
-6.279052e-02 3 3 -1.308857e+07 -9068987311388693504 0 -2.508106e+14 1.181881e+25 5136934960791500 
-3.141076e-02 3 3 -1.272357e+07 -2.692268e+19 0 8.281321e+14 1.181881e+25 5136934960791500 
-1.110223e-16 3 3 -1.238188e+07 -4.257617e+19 0 -1.257366e+15 1.181881e+25 5136934960791500 
3.141076e-02 3 3 -1.201700e+07 -5.630281e+19 0 1.844677e+15 1.181881e+25 5136934960791500 
6.279052e-02 3 3 -1.167519e+07 -6.835765e+19 0 -2144940944278939 1.181881e+25 5136934960791500 
9.410831e-02 3 3 -1.131183e+07 -7.893436e+19 0 2741406359780941 1.181881e+25 5136934960791500 
1.253332e-01 3 3 -1.097129e+07 -8.823394e+19 0 -2.927668e+15 1.181881e+25 5136934960791500 
1.564345e-01 3 3 -1.061083e+07 -9.639122e+19 0 3.532331e+15 1.181881e+25 5136934960791500 
1.873813e-01 3 3 -1.027295e+07 -1.035690e+20 0 -3617264066317713 1.181881e+25 5136934960791500 
2.181432e-01 3 3 -9.916785e+06 -1.098581e+20 0 4.229079e+15 1.181881e+25 5136934960791500 
2.486899e-01 3 3 -9.582933e+06 -1.153940e+20 0 -4223464993015294 1.181881e+25 5136934960791500 
2.789911e-01 3 3 -9.232419e+06 -1.202343e+20 0 4841318330139392 1.181881e+25 5136934960791500 
3.090170e-01 3 3 -8.903962e+06 -1.244951e+20 0 -4754361868907678 1.181881e+25 5136934960791500 
3.387379e-01 3 3 -8.560439e+06 -1.282083e+20 0 5377084794555316 1.181881e+25 5136934960791500 
3.681246e-01 3 3 -8.238714e+06 -1.314762e+20 0 -5216663615009700 1.181881e+25 5136934960791500 
3.971479e-01 3 3 -7.903497e+06 -1.343108e+20 0 5843036002449568 1.181881e+25 5136934960791500 
4.257793e-01 3 3 -7.589816e+06 -1.368045e+20 0 -5615900291153508 1.181881e+25 5136934960791500 
4.539905e-01 3 3 -7.264186e+06 -1.389538e+20 0 6244649432027638 1.181881e+25 5136934960791500 
4.817537e-01 3 3 -6.959826e+06 -1.408438e+20 0 -5956579282947390 1.181881e+25 5136934960791500 
5.090414e-01 3 3 -6.645030e+06 -1.424592e+20 0 6586373168748756 1.181881e+25 5136934960791500 
5.358268e-01 3 3 -6.351232e+06 -1.438797e+20 0 -6242302407989606 1.181881e+25 5136934960791500 
5.620834e-01 3 3 -6.048472e+06 -1.450803e+20 0 6871737806016170 1.181881e+25 5136934960791500 
5.877853e-01 3 3 -5.766434e+06 -1.461371e+20 0 -6475849284235860 1.181881e+25 5136934960791500 
6.129071e-01 3 3 -5.476868e+06 -1.470176e+20 0 7103434131548850 1.181881e+25 5136934960791500 
6.374240e-01 3 3 -5.207740e+06 -1.477950e+20 0 -6659229833985242 1.181881e+25 5136934960791500 
6.613119e-01 3 3 -4.932473e+06 -1.484310e+20 0 7283358812283260 1.181881e+25 5136934960791500 
6.845471e-01 3 3 -4.677353e+06 -1.489966e+20 0 -6793706347943982 1.181881e+25 5136934960791500 
7.071068e-01 3 3 -4.417438e+06 -1.494491e+20 0 7412627604244288 1.181881e+25 5136934960791500 
7.289686e-01 3 3 -4.177367e+06 -1.498578e+20 0 -6879782668377792 1.181881e+25 5136934960791500 
7.501111e-01 3 3 -3.933796e+06 -1.501765e+20 0 7491552305787978 1.181881e+25 5136934960791500 
7.705132e-01 3 3 -3.709753e+06 -1.504733e+20 0 -6917154216218952 1.181881e+25 5136934960791500 
7.901550e-01 3 3 -3.483455e+06 -1.506999e+20 0 7519573005427340 1.181881e+25 5136934960791500 
8.090170e-01 3 3 -3.276357e+06 -1.509228e+20 0 -6904606718475732 1.181881e+25 5136934960791500 
8.270806e-01 3 3 -3.068195e+06 -1.510927e+20 0 7495129755302674 1.181881e+25 5136934960791500 
8.443279e-01 3 3 -2.878887e+06 -1.512751e+20 0 -6839841676182532 1.181881e+25 5136934960791500 
8.607420e-01 3 3 -2.689656e+06 -1.514204e+20 0 7415444901080546 1.181881e+25 5136934960791500 
8.763067e-01 3 3 -2.518911e+06 -1.515936e+20 0 -6719188779655894 1.181881e+25 5136934960791500 
8.910065e-01 3 3 -2.349334e+06 -1.517460e+20 0 7276163083273002 1.181881e+25 5136934960791500 
9.048271e-01 3 3 -2.197847e+06 -1.519423e+20 0 -6537130617650128 1.181881e+25 5136934960791500 
9.177546e-01 3 3 -2.048572e+06 -1.521370e+20 0 7070746765450396 1.181881e+25 5136934960791500 
9.297765e-01 3 3 -1.916960e+06 -1.523960e+20 0 -6285491181415526 1.181881e+25 5136934960791500 
9.408808e-01 3 3 -1.788562e+06 -1.526802e+20 0 6789416286531670 1.181881e+25 5136934960791500 
9.510565e-01 3 3 -1.677355e+06 -1.530607e+20 0 -5951967569714998 1.181881e+25 5136934960791500 
9.602937e-01 3 3 -1.570334e+06 -1.535127e+20 0 6417154985208356 1.181881e+25 5136934960791500 
9.685832e-01 3 3 -1.479973e+06 -1.541250e+20 0 -5517231423058618 1.181881e+25 5136934960791500 
9.759168e-01 3 3 -1.394754e+06 -1.549127e+20 0 5929537276968324 1.181881e+25 5136934960791500 
9.822873e-01 3 3 -1.325585e+06 -1.560317e+20 0 -4948420563295908 1.181881e+25 5136934960791500 
9.876883e-01 3 3 -1.262528e+06 -1.576529e+20 0 5282489099298320 1.181881e+25 5136934960791500 
9.921147e-01 3 3 -1.214784e+06 -1.602991e+20 0 -4.181264e+15 1.181881e+25 5136934960791500 
9.955620e-01 3 3 -1.174200e+06 -1.652562e+20 0 4379427506447200 1.181881e+25 5136934960791500 
9.980267e-01 3 3 -1.147968e+06 -1.774183e+20 0 -3.049237e+15 1.181881e+25 5136934960791500 
9.995066e-01 3 3 -1.130201e+06 -2.103558e+20 0 2881137910120416 1.181881e+25 5136934960791500 
1 3 3 -1.125098e+06 -1.771842e+20 0 -7.081722e+14 1.181881e+25 5136934960791500 
