TITLE = "2 species of PNP-Steric with high order term" 
VARIABLES = "X" "Conc1" "Conc2" "phi" "Current_x""I_ext" "I_PNP" "CURRENT" "ENERGY" "
ZONE T="1.8485e-09", I=101
-1 1.462260e+00 1.462190e+00 -1.000000e-04 8.116174e-12 0 -9.399148e-12 1.249134e-13 1.318335e+01 
-9.992733e-01 3 3 -1.000000e-04 -2.307488e-12 0 3.845591e-12 1.249134e-13 1.318335e+01 
-9.975644e-01 3 3 -1.000000e-04 8.633094e-13 0 1.036837e-12 1.249134e-13 1.318335e+01 
-9.948806e-01 3 3 -1.000000e-04 -1.558753e-13 0 -8.772982e-13 1.249134e-13 1.318335e+01 
-9.912247e-01 3 3 -1.000000e-04 -6.654677e-13 0 1.277478e-12 1.249134e-13 1.318335e+01 
-9.866002e-01 3 3 -1.000000e-04 3.659739e-12 0 -9.952039e-13 1.249134e-13 1.318335e+01 
-9.810118e-01 3 3 -1.000000e-04 -1.284972e-12 0 1.202372e-12 1.249134e-13 1.318335e+01 
-9.744648e-01 3 3 -1.000000e-04 -2.027045e-12 0 -1.820211e-13 1.249134e-13 1.318335e+01 
-9.669657e-01 3 3 -1.000000e-04 1.667999e-12 0 -4.274914e-13 1.249134e-13 1.318335e+01 
-9.585217e-01 3 3 -1.000000e-04 3.144152e-13 0 9.209300e-14 1.249134e-13 1.318335e+01 
-9.491412e-01 3 3 -1.000000e-04 -5.302425e-13 0 2.243206e-13 1.249134e-13 1.318335e+01 
-9.388333e-01 3 3 -1.000000e-04 3.883560e-13 0 4.484746e-13 1.249134e-13 1.318335e+01 
-9.276081e-01 3 3 -1.000000e-04 8.879564e-13 0 -3.137490e-13 1.249134e-13 1.318335e+01 
-9.154766e-01 3 3 -1.000000e-04 1.179057e-13 0 -5.329071e-14 1.249134e-13 1.318335e+01 
-9.024505e-01 3 3 -1.000000e-04 -4.256595e-13 0 2.416400e-13 1.249134e-13 1.318335e+01 
-8.885427e-01 3 3 -1.000000e-04 9.485746e-13 0 3.219092e-13 1.249134e-13 1.318335e+01 
-8.737667e-01 3 3 -1.000000e-04 1.498801e-13 0 -2.181588e-13 1.249134e-13 1.318335e+01 
-8.581369e-01 3 3 -1.000000e-04 -8.006928e-13 0 1.958433e-13 1.249134e-13 1.318335e+01 
-8.416687e-01 3 3 -1.000000e-04 -4.163336e-13 0 -1.523781e-14 1.249134e-13 1.318335e+01 
-8.243781e-01 3 3 -1.000000e-04 -7.280843e-13 0 -3.455569e-14 1.249134e-13 1.318335e+01 
-8.062820e-01 3 3 -1.000000e-04 1.568745e-13 0 -1.481315e-13 1.249134e-13 1.318335e+01 
-7.873980e-01 3 3 -1.000000e-04 -5.145884e-13 0 -4.354850e-14 1.249134e-13 1.318335e+01 
-7.677448e-01 3 3 -1.000000e-04 -1.555422e-13 0 -1.302292e-13 1.249134e-13 1.318335e+01 
-7.473414e-01 3 3 -1.000000e-04 -3.094192e-13 0 3.330669e-16 1.249134e-13 1.318335e+01 
-7.262077e-01 3 3 -1.000000e-04 3.290701e-13 0 -3.547163e-14 1.249134e-13 1.318335e+01 
-7.043646e-01 3 3 -1.000000e-04 -4.013456e-13 0 1.489642e-13 1.249134e-13 1.318335e+01 
-6.818331e-01 3 3 -1.000000e-04 -5.229150e-14 0 5.645484e-14 1.249134e-13 1.318335e+01 
-6.586355e-01 3 3 -1.000000e-04 -4.090062e-13 0 4.463097e-14 1.249134e-13 1.318335e+01 
-6.347943e-01 3 3 -1.000000e-04 3.027578e-13 0 6.369905e-14 1.249134e-13 1.318335e+01 
-6.103329e-01 3 3 -1.000000e-04 1.052158e-12 0 6.211698e-14 1.249134e-13 1.318335e+01 
-5.852752e-01 3 3 -1.000000e-04 0 0 -8.326673e-14 1.249134e-13 1.318335e+01 
-5.596455e-01 3 3 -1.000000e-04 2.188250e-13 0 7.718826e-14 1.249134e-13 1.318335e+01 
-5.334691e-01 3 3 -1.000000e-04 -2.291500e-13 0 -4.121703e-14 1.249134e-13 1.318335e+01 
-5.067714e-01 3 3 -1.000000e-04 4.036771e-13 0 -2.206568e-14 1.249134e-13 1.318335e+01 
-4.795785e-01 3 3 -1.000000e-04 5.199174e-13 0 -1.840195e-14 1.249134e-13 1.318335e+01 
-4.519171e-01 3 3 -1.000000e-04 6.727952e-14 0 1.345590e-13 1.249134e-13 1.318335e+01 
-4.238141e-01 3 3 -1.000000e-04 -2.131628e-14 0 -8.984480e-14 1.249134e-13 1.318335e+01 
-3.952970e-01 3 3 -1.000000e-04 -5.329071e-14 0 5.312417e-14 1.249134e-13 1.318335e+01 
-3.663936e-01 3 3 -1.000000e-04 -2.391420e-13 0 -6.078471e-14 1.249134e-13 1.318335e+01 
-3.371323e-01 3 3 -1.000000e-04 1.971756e-13 0 2.711165e-13 1.249134e-13 1.318335e+01 
-3.075416e-01 3 3 -1.000000e-04 2.078338e-13 0 1.567080e-13 1.249134e-13 1.318335e+01 
-2.776503e-01 3 3 -1.000000e-04 9.459100e-14 0 3.463896e-14 1.249134e-13 1.318335e+01 
-2.474878e-01 3 3 -1.000000e-04 4.782841e-13 0 -3.214096e-14 1.249134e-13 1.318335e+01 
-2.170834e-01 3 3 -1.000000e-04 1.918465e-13 0 1.465494e-14 1.249134e-13 1.318335e+01 
-1.864670e-01 3 3 -1.000000e-04 -3.330669e-15 0 -4.779510e-14 1.249134e-13 1.318335e+01 
-1.556683e-01 3 3 -1.000000e-04 -2.597922e-13 0 -2.664535e-14 1.249134e-13 1.318335e+01 
-1.247176e-01 3 3 -1.000000e-04 -2.231548e-13 0 8.393286e-14 1.249134e-13 1.318335e+01 
-9.364497e-02 3 3 -1.000000e-04 -1.592060e-13 0 5.712097e-14 1.249134e-13 1.318335e+01 
-6.248086e-02 3 3 -1.000000e-04 3.170797e-13 0 -5.895284e-14 1.249134e-13 1.318335e+01 
-3.125570e-02 3 3 -1.000000e-04 -8.659740e-15 0 9.975354e-14 1.249134e-13 1.318335e+01 
0 3 3 -1.000000e-04 3.417266e-13 0 2.439715e-13 1.249134e-13 1.318335e+01 
3.125570e-02 3 3 -1.000000e-04 1.512124e-13 0 -1.132427e-14 1.249134e-13 1.318335e+01 
6.248086e-02 3 3 -1.000000e-04 7.993606e-15 0 5.295764e-14 1.249134e-13 1.318335e+01 
9.364497e-02 3 3 -1.000000e-04 -1.278977e-13 0 2.664535e-15 1.249134e-13 1.318335e+01 
1.247176e-01 3 3 -1.000000e-04 -1.851852e-13 0 4.313216e-14 1.249134e-13 1.318335e+01 
1.556683e-01 3 3 -1.000000e-04 -2.597922e-13 0 5.345724e-14 1.249134e-13 1.318335e+01 
1.864670e-01 3 3 -1.000000e-04 -4.263256e-13 0 5.528911e-14 1.249134e-13 1.318335e+01 
2.170834e-01 3 3 -1.000000e-04 2.677858e-13 0 1.302292e-13 1.249134e-13 1.318335e+01 
2.474878e-01 3 3 -1.000000e-04 1.618705e-13 0 -3.513856e-14 1.249134e-13 1.318335e+01 
2.776503e-01 3 3 -1.000000e-04 -6.061818e-14 0 2.574607e-13 1.249134e-13 1.318335e+01 
3.075416e-01 3 3 -1.000000e-04 5.768719e-13 0 1.808553e-13 1.249134e-13 1.318335e+01 
3.371323e-01 3 3 -1.000000e-04 -2.358114e-13 0 -7.660539e-15 1.249134e-13 1.318335e+01 
3.663936e-01 3 3 -1.000000e-04 -2.398082e-13 0 2.531308e-14 1.249134e-13 1.318335e+01 
3.952970e-01 3 3 -1.000000e-04 -3.810285e-13 0 -7.660539e-14 1.249134e-13 1.318335e+01 
4.238141e-01 3 3 -1.000000e-04 5.742073e-13 0 4.629630e-14 1.249134e-13 1.318335e+01 
4.519171e-01 3 3 -1.000000e-04 5.462297e-14 0 -1.095790e-13 1.249134e-13 1.318335e+01 
4.795785e-01 3 3 -1.000000e-04 9.059420e-14 0 1.209033e-13 1.249134e-13 1.318335e+01 
5.067714e-01 3 3 -1.000000e-04 4.769518e-13 0 -7.993606e-15 1.249134e-13 1.318335e+01 
5.334691e-01 3 3 -1.000000e-04 -1.172396e-13 0 1.295630e-13 1.249134e-13 1.318335e+01 
5.596455e-01 3 3 -1.000000e-04 -1.092459e-13 0 -1.765255e-13 1.249134e-13 1.318335e+01 
5.852752e-01 3 3 -1.000000e-04 8.260059e-14 0 2.005063e-13 1.249134e-13 1.318335e+01 
6.103329e-01 3 3 -1.000000e-04 -5.861978e-14 0 1.212364e-13 1.249134e-13 1.318335e+01 
6.347943e-01 3 3 -1.000000e-04 -1.678657e-13 0 -1.398881e-14 1.249134e-13 1.318335e+01 
6.586355e-01 3 3 -1.000000e-04 5.222489e-13 0 8.326673e-14 1.249134e-13 1.318335e+01 
6.818331e-01 3 3 -1.000000e-04 -9.059420e-14 0 -1.219025e-13 1.249134e-13 1.318335e+01 
7.043646e-01 3 3 -1.000000e-04 2.851053e-13 0 -7.327472e-14 1.249134e-13 1.318335e+01 
7.262077e-01 3 3 -1.000000e-04 3.490541e-13 0 -1.199041e-14 1.249134e-13 1.318335e+01 
7.473414e-01 3 3 -1.000000e-04 2.771117e-13 0 -1.099121e-13 1.249134e-13 1.318335e+01 
7.677448e-01 3 3 -1.000000e-04 -5.329071e-15 0 -7.993606e-14 1.249134e-13 1.318335e+01 
7.873980e-01 3 3 -1.000000e-04 3.677059e-13 0 -6.128431e-14 1.249134e-13 1.318335e+01 
8.062820e-01 3 3 -1.000000e-04 3.090861e-13 0 5.329071e-15 1.249134e-13 1.318335e+01 
8.243781e-01 3 3 -1.000000e-04 -4.476419e-13 0 -2.664535e-15 1.249134e-13 1.318335e+01 
8.416687e-01 3 3 -1.000000e-04 -5.222489e-13 0 -5.462297e-14 1.249134e-13 1.318335e+01 
8.581369e-01 3 3 -1.000000e-04 4.263256e-13 0 -2.131628e-13 1.249134e-13 1.318335e+01 
8.737667e-01 3 3 -1.000000e-04 5.968559e-13 0 4.636291e-13 1.249134e-13 1.318335e+01 
8.885427e-01 3 3 -1.000000e-04 -3.623768e-13 0 1.731948e-13 1.249134e-13 1.318335e+01 
9.024505e-01 3 3 -1.000000e-04 8.419931e-13 0 -1.385558e-13 1.249134e-13 1.318335e+01 
9.154766e-01 3 3 -1.000000e-04 -2.984279e-13 0 1.652012e-13 1.249134e-13 1.318335e+01 
9.276081e-01 3 3 -1.000000e-04 -1.151079e-12 0 -2.398082e-13 1.249134e-13 1.318335e+01 
9.388333e-01 3 3 -1.000000e-04 -5.755396e-13 0 1.012523e-13 1.249134e-13 1.318335e+01 
9.491412e-01 3 3 -1.000000e-04 -4.263256e-13 0 -1.172396e-13 1.249134e-13 1.318335e+01 
9.585217e-01 3 3 -1.000000e-04 6.821210e-13 0 -2.131628e-14 1.249134e-13 1.318335e+01 
9.669657e-01 3 3 -1.000000e-04 7.247536e-13 0 2.238210e-13 1.249134e-13 1.318335e+01 
9.744648e-01 3 3 -1.000000e-04 1.961098e-12 0 1.918465e-13 1.249134e-13 1.318335e+01 
9.810118e-01 3 3 -1.000000e-04 1.278977e-12 0 -4.263256e-13 1.249134e-13 1.318335e+01 
9.866002e-01 3 3 -1.000000e-04 -1.023182e-12 0 -1.278977e-13 1.249134e-13 1.318335e+01 
9.912247e-01 3 3 -1.000000e-04 2.557954e-12 0 -2.557954e-13 1.249134e-13 1.318335e+01 
9.948806e-01 3 3 -1.000000e-04 3.751666e-12 0 9.379164e-13 1.249134e-13 1.318335e+01 
9.975644e-01 3 3 -1.000000e-04 -1.364242e-12 0 3.410605e-13 1.249134e-13 1.318335e+01 
9.992733e-01 3 3 -1.000000e-04 0 0 -1.364242e-12 1.249134e-13 1.318335e+01 
1 1.462260e+00 1.462190e+00 -1.000000e-04 0 0 0 1.249134e-13 1.318335e+01 
ZONE T="3.6971e-09", I=101
-1 1.043789e+00 1.043710e+00 -9.971995e-05 -1.212322e+00 -1.312812e+00 1.004899e-01 1.538879e-14 1.318118e+01 
-9.992733e-01 2.981630e+00 2.981631e+00 -9.971995e-05 1.137523e-01 -4.701583e-02 1.607681e-01 1.538879e-14 1.318118e+01 
-9.975644e-01 2.998668e+00 2.998668e+00 -9.971995e-05 -2.527756e-02 1.044766e-02 -3.572522e-02 1.538879e-14 1.318118e+01 
-9.948806e-01 3.001007e+00 3.001007e+00 -9.971995e-05 9.996922e-03 -4.131905e-03 1.412883e-02 1.538879e-14 1.318118e+01 
-9.912247e-01 2.999392e+00 2.999392e+00 -9.971995e-05 -5.093645e-03 2.105294e-03 -7.198938e-03 1.538879e-14 1.318118e+01 
-9.866002e-01 3.000386e+00 3.000386e+00 -9.971995e-05 2.996560e-03 -1.238531e-03 4.235091e-03 1.538879e-14 1.318118e+01 
-9.810118e-01 2.999740e+00 2.999740e+00 -9.971995e-05 -1.934368e-03 7.995084e-04 -2.733876e-03 1.538879e-14 1.318118e+01 
-9.744648e-01 3.000184e+00 3.000184e+00 -9.971995e-05 1.332487e-03 -5.507406e-04 1.883228e-03 1.538879e-14 1.318118e+01 
-9.669657e-01 2.999864e+00 2.999864e+00 -9.971995e-05 -9.630007e-04 3.980252e-04 -1.361026e-03 1.538879e-14 1.318118e+01 
-9.585217e-01 3.000104e+00 3.000104e+00 -9.971995e-05 7.221192e-04 -2.984646e-04 1.020584e-03 1.538879e-14 1.318118e+01 
-9.491412e-01 2.999918e+00 2.999918e+00 -9.971995e-05 -5.575457e-04 2.304435e-04 -7.879892e-04 1.538879e-14 1.318118e+01 
-9.388333e-01 3.000066e+00 3.000066e+00 -9.971995e-05 4.408023e-04 -1.821914e-04 6.229937e-04 1.538879e-14 1.318118e+01 
-9.276081e-01 2.999946e+00 2.999946e+00 -9.971995e-05 -3.553968e-04 1.468918e-04 -5.022886e-04 1.538879e-14 1.318118e+01 
-9.154766e-01 3.000045e+00 3.000045e+00 -9.971995e-05 2.912879e-04 -1.203944e-04 4.116823e-04 1.538879e-14 1.318118e+01 
-9.024505e-01 2.999962e+00 2.999962e+00 -9.971995e-05 -2.421026e-04 1.000653e-04 -3.421678e-04 1.538879e-14 1.318118e+01 
-8.885427e-01 3.000032e+00 3.000032e+00 -9.971995e-05 2.036517e-04 -8.417287e-05 2.878246e-04 1.538879e-14 1.318118e+01 
-8.737667e-01 2.999972e+00 2.999972e+00 -9.971995e-05 -1.730979e-04 7.154443e-05 -2.446423e-04 1.538879e-14 1.318118e+01 
-8.581369e-01 3.000025e+00 3.000025e+00 -9.971995e-05 1.484686e-04 -6.136468e-05 2.098332e-04 1.538879e-14 1.318118e+01 
-8.416687e-01 2.999978e+00 2.999978e+00 -9.971995e-05 -1.283610e-04 5.305386e-05 -1.814148e-04 1.538879e-14 1.318118e+01 
-8.243781e-01 3.000019e+00 3.000019e+00 -9.971995e-05 1.117575e-04 -4.619135e-05 1.579488e-04 1.538879e-14 1.318118e+01 
-8.062820e-01 2.999983e+00 2.999983e+00 -9.971995e-05 -9.790656e-05 4.046652e-05 -1.383731e-04 1.538879e-14 1.318118e+01 
-7.873980e-01 3.000016e+00 3.000016e+00 -9.971995e-05 8.624420e-05 -3.564626e-05 1.218905e-04 1.538879e-14 1.318118e+01 
-7.677448e-01 2.999986e+00 2.999986e+00 -9.971995e-05 -7.634110e-05 3.155313e-05 -1.078942e-04 1.538879e-14 1.318118e+01 
-7.473414e-01 3.000013e+00 3.000013e+00 -9.971995e-05 6.786617e-05 -2.805029e-05 9.591646e-05 1.538879e-14 1.318118e+01 
-7.262077e-01 2.999988e+00 2.999988e+00 -9.971995e-05 -6.056106e-05 2.503096e-05 -8.559202e-05 1.538879e-14 1.318118e+01 
-7.043646e-01 3.000011e+00 3.000011e+00 -9.971995e-05 5.422196e-05 -2.241089e-05 7.663285e-05 1.538879e-14 1.318118e+01 
-6.818331e-01 2.999990e+00 2.999990e+00 -9.971995e-05 -4.868646e-05 2.012297e-05 -6.880943e-05 1.538879e-14 1.318118e+01 
-6.586355e-01 3.000010e+00 3.000010e+00 -9.971995e-05 4.382397e-05 -1.811322e-05 6.193719e-05 1.538879e-14 1.318118e+01 
-6.347943e-01 2.999991e+00 2.999991e+00 -9.971995e-05 -3.952858e-05 1.633786e-05 -5.586644e-05 1.538879e-14 1.318118e+01 
-6.103329e-01 3.000008e+00 3.000008e+00 -9.971995e-05 3.571368e-05 -1.476110e-05 5.047478e-05 1.538879e-14 1.318118e+01 
-5.852752e-01 2.999992e+00 2.999992e+00 -9.971995e-05 -3.230795e-05 1.335345e-05 -4.566140e-05 1.538879e-14 1.318118e+01 
-5.596455e-01 3.000007e+00 3.000007e+00 -9.971995e-05 2.925219e-05 -1.209045e-05 4.134263e-05 1.538879e-14 1.318118e+01 
-5.334691e-01 2.999993e+00 2.999993e+00 -9.971995e-05 -2.649696e-05 1.095166e-05 -3.744863e-05 1.538879e-14 1.318118e+01 
-5.067714e-01 3.000007e+00 3.000007e+00 -9.971995e-05 2.400071e-05 -9.919920e-06 3.392063e-05 1.538879e-14 1.318118e+01 
-4.795785e-01 2.999994e+00 2.999994e+00 -9.971995e-05 -2.172827e-05 8.980679e-06 -3.070895e-05 1.538879e-14 1.318118e+01 
-4.519171e-01 3.000006e+00 3.000006e+00 -9.971995e-05 1.964970e-05 -8.121570e-06 2.777127e-05 1.538879e-14 1.318118e+01 
-4.238141e-01 2.999994e+00 2.999994e+00 -9.971995e-05 -1.773937e-05 7.331994e-06 -2.507136e-05 1.538879e-14 1.318118e+01 
-3.952970e-01 3.000006e+00 3.000006e+00 -9.971995e-05 1.597517e-05 -6.602819e-06 2.257799e-05 1.538879e-14 1.318118e+01 
-3.663936e-01 2.999994e+00 2.999994e+00 -9.971995e-05 -1.433794e-05 5.926126e-06 -2.026407e-05 1.538879e-14 1.318118e+01 
-3.371323e-01 3.000005e+00 3.000005e+00 -9.971995e-05 1.281097e-05 -5.295003e-06 1.810598e-05 1.538879e-14 1.318118e+01 
-3.075416e-01 2.999995e+00 2.999995e+00 -9.971995e-05 -1.137957e-05 4.703377e-06 -1.608295e-05 1.538879e-14 1.318118e+01 
-2.776503e-01 3.000005e+00 3.000005e+00 -9.971995e-05 1.003073e-05 -4.145878e-06 1.417661e-05 1.538879e-14 1.318118e+01 
-2.474878e-01 2.999995e+00 2.999995e+00 -9.971995e-05 -8.752866e-06 3.617715e-06 -1.237058e-05 1.538879e-14 1.318118e+01 
-2.170834e-01 3.000005e+00 3.000005e+00 -9.971995e-05 7.535566e-06 -3.114583e-06 1.065015e-05 1.538879e-14 1.318118e+01 
-1.864670e-01 2.999995e+00 2.999995e+00 -9.971995e-05 -6.369384e-06 2.632580e-06 -9.001964e-06 1.538879e-14 1.318118e+01 
-1.556683e-01 3.000005e+00 3.000005e+00 -9.971995e-05 5.245678e-06 -2.168131e-06 7.413809e-06 1.538879e-14 1.318118e+01 
-1.247176e-01 2.999995e+00 2.999995e+00 -9.971995e-05 -4.156447e-06 1.717933e-06 -5.874381e-06 1.538879e-14 1.318118e+01 
-9.364497e-02 3.000005e+00 3.000005e+00 -9.971995e-05 3.094214e-06 -1.278893e-06 4.373108e-06 1.538879e-14 1.318118e+01 
-6.248086e-02 2.999995e+00 2.999995e+00 -9.971995e-05 -2.051893e-06 8.480838e-07 -2.899977e-06 1.538879e-14 1.318118e+01 
-3.125570e-02 3.000005e+00 3.000005e+00 -9.971995e-05 1.022690e-06 -4.226961e-07 1.445386e-06 1.538879e-14 1.318118e+01 
0 2.999995e+00 2.999995e+00 -9.971995e-05 4.096723e-14 -3.563816e-14 1.322276e-13 1.538879e-14 1.318118e+01 
3.125570e-02 3.000005e+00 3.000005e+00 -9.971995e-05 -1.022690e-06 4.226960e-07 -1.445386e-06 1.538879e-14 1.318118e+01 
6.248086e-02 2.999995e+00 2.999995e+00 -9.971995e-05 2.051893e-06 -8.480837e-07 2.899977e-06 1.538879e-14 1.318118e+01 
9.364497e-02 3.000005e+00 3.000005e+00 -9.971995e-05 -3.094214e-06 1.278893e-06 -4.373108e-06 1.538879e-14 1.318118e+01 
1.247176e-01 2.999995e+00 2.999995e+00 -9.971995e-05 4.156447e-06 -1.717933e-06 5.874381e-06 1.538879e-14 1.318118e+01 
1.556683e-01 3.000005e+00 3.000005e+00 -9.971995e-05 -5.245677e-06 2.168131e-06 -7.413809e-06 1.538879e-14 1.318118e+01 
1.864670e-01 2.999995e+00 2.999995e+00 -9.971995e-05 6.369385e-06 -2.632579e-06 9.001964e-06 1.538879e-14 1.318118e+01 
2.170834e-01 3.000005e+00 3.000005e+00 -9.971995e-05 -7.535566e-06 3.114583e-06 -1.065015e-05 1.538879e-14 1.318118e+01 
2.474878e-01 2.999995e+00 2.999995e+00 -9.971995e-05 8.752866e-06 -3.617715e-06 1.237058e-05 1.538879e-14 1.318118e+01 
2.776503e-01 3.000005e+00 3.000005e+00 -9.971995e-05 -1.003073e-05 4.145878e-06 -1.417661e-05 1.538879e-14 1.318118e+01 
3.075416e-01 2.999995e+00 2.999995e+00 -9.971995e-05 1.137957e-05 -4.703377e-06 1.608295e-05 1.538879e-14 1.318118e+01 
3.371323e-01 3.000005e+00 3.000005e+00 -9.971995e-05 -1.281098e-05 5.295003e-06 -1.810598e-05 1.538879e-14 1.318118e+01 
3.663936e-01 2.999994e+00 2.999994e+00 -9.971995e-05 1.433794e-05 -5.926126e-06 2.026407e-05 1.538879e-14 1.318118e+01 
3.952970e-01 3.000006e+00 3.000006e+00 -9.971995e-05 -1.597517e-05 6.602819e-06 -2.257799e-05 1.538879e-14 1.318118e+01 
4.238141e-01 2.999994e+00 2.999994e+00 -9.971995e-05 1.773937e-05 -7.331994e-06 2.507136e-05 1.538879e-14 1.318118e+01 
4.519171e-01 3.000006e+00 3.000006e+00 -9.971995e-05 -1.964970e-05 8.121570e-06 -2.777127e-05 1.538879e-14 1.318118e+01 
4.795785e-01 2.999994e+00 2.999994e+00 -9.971995e-05 2.172827e-05 -8.980679e-06 3.070895e-05 1.538879e-14 1.318118e+01 
5.067714e-01 3.000007e+00 3.000007e+00 -9.971995e-05 -2.400071e-05 9.919920e-06 -3.392063e-05 1.538879e-14 1.318118e+01 
5.334691e-01 2.999993e+00 2.999993e+00 -9.971995e-05 2.649696e-05 -1.095166e-05 3.744863e-05 1.538879e-14 1.318118e+01 
5.596455e-01 3.000007e+00 3.000007e+00 -9.971995e-05 -2.925219e-05 1.209045e-05 -4.134263e-05 1.538879e-14 1.318118e+01 
5.852752e-01 2.999992e+00 2.999992e+00 -9.971995e-05 3.230795e-05 -1.335345e-05 4.566140e-05 1.538879e-14 1.318118e+01 
6.103329e-01 3.000008e+00 3.000008e+00 -9.971995e-05 -3.571368e-05 1.476110e-05 -5.047478e-05 1.538879e-14 1.318118e+01 
6.347943e-01 2.999991e+00 2.999991e+00 -9.971995e-05 3.952858e-05 -1.633786e-05 5.586644e-05 1.538879e-14 1.318118e+01 
6.586355e-01 3.000010e+00 3.000010e+00 -9.971995e-05 -4.382397e-05 1.811322e-05 -6.193719e-05 1.538879e-14 1.318118e+01 
6.818331e-01 2.999990e+00 2.999990e+00 -9.971995e-05 4.868646e-05 -2.012297e-05 6.880943e-05 1.538879e-14 1.318118e+01 
7.043646e-01 3.000011e+00 3.000011e+00 -9.971995e-05 -5.422196e-05 2.241089e-05 -7.663285e-05 1.538879e-14 1.318118e+01 
7.262077e-01 2.999988e+00 2.999988e+00 -9.971995e-05 6.056106e-05 -2.503096e-05 8.559202e-05 1.538879e-14 1.318118e+01 
7.473414e-01 3.000013e+00 3.000013e+00 -9.971995e-05 -6.786617e-05 2.805029e-05 -9.591646e-05 1.538879e-14 1.318118e+01 
7.677448e-01 2.999986e+00 2.999986e+00 -9.971995e-05 7.634110e-05 -3.155313e-05 1.078942e-04 1.538879e-14 1.318118e+01 
7.873980e-01 3.000016e+00 3.000016e+00 -9.971995e-05 -8.624420e-05 3.564626e-05 -1.218905e-04 1.538879e-14 1.318118e+01 
8.062820e-01 2.999983e+00 2.999983e+00 -9.971995e-05 9.790656e-05 -4.046652e-05 1.383731e-04 1.538879e-14 1.318118e+01 
8.243781e-01 3.000019e+00 3.000019e+00 -9.971995e-05 -1.117575e-04 4.619135e-05 -1.579488e-04 1.538879e-14 1.318118e+01 
8.416687e-01 2.999978e+00 2.999978e+00 -9.971995e-05 1.283610e-04 -5.305386e-05 1.814148e-04 1.538879e-14 1.318118e+01 
8.581369e-01 3.000025e+00 3.000025e+00 -9.971995e-05 -1.484686e-04 6.136468e-05 -2.098332e-04 1.538879e-14 1.318118e+01 
8.737667e-01 2.999972e+00 2.999972e+00 -9.971995e-05 1.730979e-04 -7.154443e-05 2.446423e-04 1.538879e-14 1.318118e+01 
8.885427e-01 3.000032e+00 3.000032e+00 -9.971995e-05 -2.036517e-04 8.417287e-05 -2.878246e-04 1.538879e-14 1.318118e+01 
9.024505e-01 2.999962e+00 2.999962e+00 -9.971995e-05 2.421026e-04 -1.000653e-04 3.421678e-04 1.538879e-14 1.318118e+01 
9.154766e-01 3.000045e+00 3.000045e+00 -9.971995e-05 -2.912879e-04 1.203944e-04 -4.116823e-04 1.538879e-14 1.318118e+01 
9.276081e-01 2.999946e+00 2.999946e+00 -9.971995e-05 3.553968e-04 -1.468918e-04 5.022886e-04 1.538879e-14 1.318118e+01 
9.388333e-01 3.000066e+00 3.000066e+00 -9.971995e-05 -4.408023e-04 1.821914e-04 -6.229937e-04 1.538879e-14 1.318118e+01 
9.491412e-01 2.999918e+00 2.999918e+00 -9.971995e-05 5.575457e-04 -2.304435e-04 7.879892e-04 1.538879e-14 1.318118e+01 
9.585217e-01 3.000104e+00 3.000104e+00 -9.971995e-05 -7.221192e-04 2.984646e-04 -1.020584e-03 1.538879e-14 1.318118e+01 
9.669657e-01 2.999864e+00 2.999864e+00 -9.971995e-05 9.630007e-04 -3.980252e-04 1.361026e-03 1.538879e-14 1.318118e+01 
9.744648e-01 3.000184e+00 3.000184e+00 -9.971995e-05 -1.332487e-03 5.507406e-04 -1.883228e-03 1.538879e-14 1.318118e+01 
9.810118e-01 2.999740e+00 2.999740e+00 -9.971995e-05 1.934368e-03 -7.995084e-04 2.733876e-03 1.538879e-14 1.318118e+01 
9.866002e-01 3.000386e+00 3.000386e+00 -9.971995e-05 -2.996560e-03 1.238531e-03 -4.235091e-03 1.538879e-14 1.318118e+01 
9.912247e-01 2.999392e+00 2.999392e+00 -9.971995e-05 5.093645e-03 -2.105294e-03 7.198938e-03 1.538879e-14 1.318118e+01 
9.948806e-01 3.001007e+00 3.001007e+00 -9.971995e-05 -9.996922e-03 4.131905e-03 -1.412883e-02 1.538879e-14 1.318118e+01 
9.975644e-01 2.998668e+00 2.998668e+00 -9.971995e-05 2.527756e-02 -1.044766e-02 3.572522e-02 1.538879e-14 1.318118e+01 
9.992733e-01 2.981630e+00 2.981631e+00 -9.971995e-05 -1.137523e-01 4.701583e-02 -1.607681e-01 1.538879e-14 1.318118e+01 
1 1.043789e+00 1.043710e+00 -9.971995e-05 1.212322e+00 1.312812e+00 -1.004899e-01 1.538879e-14 1.318118e+01 
ZONE T="5.5456e-09", I=101
-1 8.357028e-01 8.356229e-01 -9.967159e-05 -1.815430e+00 -1.797798e+00 -1.763207e-02 3.085878e-14 1.318057e+01 
-9.992733e-01 2.963710e+00 2.963712e+00 -9.967159e-05 2.031441e-01 -4.963136e-02 2.527754e-01 3.085878e-14 1.318057e+01 
-9.975644e-01 2.995634e+00 2.995634e+00 -9.967159e-05 -4.458549e-02 1.221255e-02 -5.679804e-02 3.085878e-14 1.318057e+01 
-9.948806e-01 3.002801e+00 3.002801e+00 -9.967159e-05 1.780360e-02 -4.774747e-03 2.257835e-02 3.085878e-14 1.318057e+01 
-9.912247e-01 2.998357e+00 2.998357e+00 -9.967159e-05 -9.042995e-03 2.464413e-03 -1.150741e-02 3.085878e-14 1.318057e+01 
-9.866002e-01 3.001032e+00 3.001032e+00 -9.967159e-05 5.333064e-03 -1.445331e-03 6.778395e-03 3.085878e-14 1.318057e+01 
-9.810118e-01 2.999308e+00 2.999308e+00 -9.967159e-05 -3.438750e-03 9.368618e-04 -4.375612e-03 3.085878e-14 1.318057e+01 
-9.744648e-01 3.000489e+00 3.000489e+00 -9.967159e-05 2.371178e-03 -6.444628e-04 3.015641e-03 3.085878e-14 1.318057e+01 
-9.669657e-01 2.999639e+00 2.999639e+00 -9.967159e-05 -1.712719e-03 4.666399e-04 -2.179359e-03 3.085878e-14 1.318057e+01 
-9.585217e-01 3.000276e+00 3.000276e+00 -9.967159e-05 1.284983e-03 -3.496465e-04 1.634629e-03 3.085878e-14 1.318057e+01 
-9.491412e-01 2.999784e+00 2.999784e+00 -9.967159e-05 -9.918102e-04 2.702433e-04 -1.262053e-03 3.085878e-14 1.318057e+01 
-9.388333e-01 3.000174e+00 3.000174e+00 -9.967159e-05 7.843853e-04 -2.135536e-04 9.979390e-04 3.085878e-14 1.318057e+01 
-9.276081e-01 2.999858e+00 2.999858e+00 -9.967159e-05 -6.322783e-04 1.722898e-04 -8.045681e-04 3.085878e-14 1.318057e+01 
-9.154766e-01 3.000118e+00 3.000118e+00 -9.967159e-05 5.183318e-04 -1.411638e-04 6.594956e-04 3.085878e-14 1.318057e+01 
-9.024505e-01 2.999900e+00 2.999900e+00 -9.967159e-05 -4.307463e-04 1.173793e-04 -5.481256e-04 3.085878e-14 1.318057e+01 
-8.885427e-01 3.000086e+00 3.000086e+00 -9.967159e-05 3.623884e-04 -9.871306e-05 4.611014e-04 3.085878e-14 1.318057e+01 
-8.737667e-01 2.999926e+00 2.999926e+00 -9.967159e-05 -3.079863e-04 8.392967e-05 -3.919160e-04 3.085878e-14 1.318057e+01 
-8.581369e-01 3.000065e+00 3.000065e+00 -9.967159e-05 2.641931e-04 -7.197431e-05 3.361674e-04 3.085878e-14 1.318057e+01 
-8.416687e-01 2.999943e+00 2.999943e+00 -9.967159e-05 -2.283938e-04 6.224136e-05 -2.906351e-04 3.085878e-14 1.318057e+01 
-8.243781e-01 3.000051e+00 3.000051e+00 -9.967159e-05 1.988678e-04 -5.418248e-05 2.530503e-04 3.085878e-14 1.318057e+01 
-8.062820e-01 2.999954e+00 2.999954e+00 -9.967159e-05 -1.742092e-04 4.747603e-05 -2.216853e-04 3.085878e-14 1.318057e+01 
-7.873980e-01 3.000041e+00 3.000041e+00 -9.967159e-05 1.534682e-04 -4.181580e-05 1.952840e-04 3.085878e-14 1.318057e+01 
-7.677448e-01 2.999963e+00 2.999963e+00 -9.967159e-05 -1.358388e-04 3.701974e-05 -1.728585e-04 3.085878e-14 1.318057e+01 
-7.473414e-01 3.000034e+00 3.000034e+00 -9.967159e-05 1.207654e-04 -3.290673e-05 1.536722e-04 3.085878e-14 1.318057e+01 
-7.262077e-01 2.999969e+00 2.999969e+00 -9.967159e-05 -1.077614e-04 2.936825e-05 -1.371297e-04 3.085878e-14 1.318057e+01 
-7.043646e-01 3.000029e+00 3.000029e+00 -9.967159e-05 9.648616e-05 -2.629193e-05 1.227781e-04 3.085878e-14 1.318057e+01 
-6.818331e-01 2.999973e+00 2.999973e+00 -9.967159e-05 -8.663258e-05 2.361023e-05 -1.102428e-04 3.085878e-14 1.318057e+01 
-6.586355e-01 3.000025e+00 3.000025e+00 -9.967159e-05 7.798337e-05 -2.125060e-05 9.923398e-05 3.085878e-14 1.318057e+01 
-6.347943e-01 2.999977e+00 2.999977e+00 -9.967159e-05 -7.033750e-05 1.916943e-05 -8.950693e-05 3.085878e-14 1.318057e+01 
-6.103329e-01 3.000022e+00 3.000022e+00 -9.967159e-05 6.355143e-05 -1.731824e-05 8.086968e-05 3.085878e-14 1.318057e+01 
-5.852752e-01 2.999979e+00 2.999979e+00 -9.967159e-05 -5.748932e-05 1.566795e-05 -7.315727e-05 3.085878e-14 1.318057e+01 
-5.596455e-01 3.000020e+00 3.000020e+00 -9.967159e-05 5.205343e-05 -1.418519e-05 6.623863e-05 3.085878e-14 1.318057e+01 
-5.334691e-01 2.999981e+00 2.999981e+00 -9.967159e-05 -4.714932e-05 1.284999e-05 -5.999932e-05 3.085878e-14 1.318057e+01 
-5.067714e-01 3.000018e+00 3.000018e+00 -9.967159e-05 4.270861e-05 -1.163877e-05 5.434738e-05 3.085878e-14 1.318057e+01 
-4.795785e-01 2.999983e+00 2.999983e+00 -9.967159e-05 -3.866392e-05 1.053744e-05 -4.920136e-05 3.085878e-14 1.318057e+01 
-4.519171e-01 3.000016e+00 3.000016e+00 -9.967159e-05 3.496613e-05 -9.528924e-06 4.449505e-05 3.085878e-14 1.318057e+01 
-4.238141e-01 2.999984e+00 2.999984e+00 -9.967159e-05 -3.156602e-05 8.603012e-06 -4.016903e-05 3.085878e-14 1.318057e+01 
-3.952970e-01 3.000015e+00 3.000015e+00 -9.967159e-05 2.842740e-05 -7.747065e-06 3.617447e-05 3.085878e-14 1.318057e+01 
-3.663936e-01 2.999985e+00 2.999985e+00 -9.967159e-05 -2.551346e-05 6.953466e-06 -3.246693e-05 3.085878e-14 1.318057e+01 
-3.371323e-01 3.000014e+00 3.000014e+00 -9.967159e-05 2.279681e-05 -6.212654e-06 2.900946e-05 3.085878e-14 1.318057e+01 
-3.075416e-01 2.999986e+00 2.999986e+00 -9.967159e-05 -2.024925e-05 5.518765e-06 -2.576802e-05 3.085878e-14 1.318057e+01 
-2.776503e-01 3.000014e+00 3.000014e+00 -9.967159e-05 1.784944e-05 -4.864407e-06 2.271385e-05 3.085878e-14 1.318057e+01 
-2.474878e-01 2.999987e+00 2.999987e+00 -9.967159e-05 -1.557521e-05 4.244902e-06 -1.982011e-05 3.085878e-14 1.318057e+01 
-2.170834e-01 3.000013e+00 3.000013e+00 -9.967159e-05 1.340936e-05 -3.654392e-06 1.706375e-05 3.085878e-14 1.318057e+01 
-1.864670e-01 2.999987e+00 2.999987e+00 -9.967159e-05 -1.133396e-05 3.088985e-06 -1.442294e-05 3.085878e-14 1.318057e+01 
-1.556683e-01 3.000013e+00 3.000013e+00 -9.967159e-05 9.334559e-06 -2.543913e-06 1.187847e-05 3.085878e-14 1.318057e+01 
-1.247176e-01 2.999987e+00 2.999987e+00 -9.967159e-05 -7.396166e-06 2.015771e-06 -9.411937e-06 3.085878e-14 1.318057e+01 
-9.364497e-02 3.000012e+00 3.000012e+00 -9.967159e-05 5.506082e-06 -1.500554e-06 7.006636e-06 3.085878e-14 1.318057e+01 
-6.248086e-02 2.999988e+00 2.999988e+00 -9.967159e-05 -3.651231e-06 9.951166e-07 -4.646347e-06 3.085878e-14 1.318057e+01 
-3.125570e-02 3.000012e+00 3.000012e+00 -9.967159e-05 1.819854e-06 -4.959592e-07 2.315813e-06 3.085878e-14 1.318057e+01 
0 2.999988e+00 2.999988e+00 -9.967159e-05 3.140816e-13 1.746933e-13 -8.243393e-15 3.085878e-14 1.318057e+01 
3.125570e-02 3.000012e+00 3.000012e+00 -9.967159e-05 -1.819854e-06 4.959591e-07 -2.315813e-06 3.085878e-14 1.318057e+01 
6.248086e-02 2.999988e+00 2.999988e+00 -9.967159e-05 3.651230e-06 -9.951166e-07 4.646347e-06 3.085878e-14 1.318057e+01 
9.364497e-02 3.000012e+00 3.000012e+00 -9.967159e-05 -5.506082e-06 1.500555e-06 -7.006636e-06 3.085878e-14 1.318057e+01 
1.247176e-01 2.999987e+00 2.999987e+00 -9.967159e-05 7.396166e-06 -2.015771e-06 9.411937e-06 3.085878e-14 1.318057e+01 
1.556683e-01 3.000013e+00 3.000013e+00 -9.967159e-05 -9.334559e-06 2.543913e-06 -1.187847e-05 3.085878e-14 1.318057e+01 
1.864670e-01 2.999987e+00 2.999987e+00 -9.967159e-05 1.133396e-05 -3.088985e-06 1.442294e-05 3.085878e-14 1.318057e+01 
2.170834e-01 3.000013e+00 3.000013e+00 -9.967159e-05 -1.340936e-05 3.654392e-06 -1.706375e-05 3.085878e-14 1.318057e+01 
2.474878e-01 2.999987e+00 2.999987e+00 -9.967159e-05 1.557521e-05 -4.244902e-06 1.982011e-05 3.085878e-14 1.318057e+01 
2.776503e-01 3.000014e+00 3.000014e+00 -9.967159e-05 -1.784944e-05 4.864407e-06 -2.271385e-05 3.085878e-14 1.318057e+01 
3.075416e-01 2.999986e+00 2.999986e+00 -9.967159e-05 2.024925e-05 -5.518765e-06 2.576802e-05 3.085878e-14 1.318057e+01 
3.371323e-01 3.000014e+00 3.000014e+00 -9.967159e-05 -2.279681e-05 6.212654e-06 -2.900946e-05 3.085878e-14 1.318057e+01 
3.663936e-01 2.999985e+00 2.999985e+00 -9.967159e-05 2.551346e-05 -6.953466e-06 3.246693e-05 3.085878e-14 1.318057e+01 
3.952970e-01 3.000015e+00 3.000015e+00 -9.967159e-05 -2.842740e-05 7.747065e-06 -3.617447e-05 3.085878e-14 1.318057e+01 
4.238141e-01 2.999984e+00 2.999984e+00 -9.967159e-05 3.156602e-05 -8.603012e-06 4.016903e-05 3.085878e-14 1.318057e+01 
4.519171e-01 3.000016e+00 3.000016e+00 -9.967159e-05 -3.496613e-05 9.528924e-06 -4.449505e-05 3.085878e-14 1.318057e+01 
4.795785e-01 2.999983e+00 2.999983e+00 -9.967159e-05 3.866392e-05 -1.053744e-05 4.920136e-05 3.085878e-14 1.318057e+01 
5.067714e-01 3.000018e+00 3.000018e+00 -9.967159e-05 -4.270861e-05 1.163877e-05 -5.434738e-05 3.085878e-14 1.318057e+01 
5.334691e-01 2.999981e+00 2.999981e+00 -9.967159e-05 4.714933e-05 -1.284999e-05 5.999932e-05 3.085878e-14 1.318057e+01 
5.596455e-01 3.000020e+00 3.000020e+00 -9.967159e-05 -5.205343e-05 1.418519e-05 -6.623863e-05 3.085878e-14 1.318057e+01 
5.852752e-01 2.999979e+00 2.999979e+00 -9.967159e-05 5.748932e-05 -1.566795e-05 7.315727e-05 3.085878e-14 1.318057e+01 
6.103329e-01 3.000022e+00 3.000022e+00 -9.967159e-05 -6.355143e-05 1.731824e-05 -8.086968e-05 3.085878e-14 1.318057e+01 