TITLE = "2 species of PNP-Steric with high order term" 
VARIABLES = "X" "Conc1" "Conc2" "phi" "Current_x""I_ext" "I_PNP" "CURRENT" "ENERGY" "
ZONE T="0.001", I=101
-1 1.723217e-02 3 -3.011241e-02 -1.724123e+02 0 -1.559046e+02 -6.867640e-11 1.268908e+01 
-9.995066e-01 6.284637e-02 3 -3.025534e-02 -1.427918e+02 0 -1.578461e+02 -6.867640e-11 1.268908e+01 
-9.980267e-01 1.115580e-01 3 -3.069963e-02 -1.549126e+02 0 -9.921974e+01 -6.867640e-11 1.268908e+01 
-9.955620e-01 4.317227e-01 3 -3.137966e-02 -1.446616e+02 0 -2.195137e+02 -6.867640e-11 1.268908e+01 
-9.921147e-01 3.794015e-01 3 -3.231439e-02 -1.518390e+02 0 -1.964990e+01 -6.867640e-11 1.268908e+01 
-9.876883e-01 9.204825e-01 3 -3.338633e-02 -1.419665e+02 0 -2.435268e+02 -6.867640e-11 1.268908e+01 
-9.822873e-01 7.478600e-01 3 -3.462225e-02 -1.455742e+02 0 3.350159e+01 -6.867640e-11 1.268908e+01 
-9.759168e-01 1.420170e+00 3 -3.587532e-02 -1.341961e+02 0 -2.324961e+02 -6.867640e-11 1.268908e+01 
-9.685832e-01 1.152914e+00 3 -3.719375e-02 -1.341192e+02 0 6.014841e+01 -6.867640e-11 1.268908e+01 
-9.602937e-01 1.894279e+00 3 -3.841559e-02 -1.204949e+02 0 -2.062692e+02 -6.867640e-11 1.268908e+01 
-9.510565e-01 1.549610e+00 3 -3.962385e-02 -1.168424e+02 0 7.000691e+01 -6.867640e-11 1.268908e+01 
-9.408808e-01 2.318515e+00 3 -4.065039e-02 -1.010646e+02 0 -1.748592e+02 -6.867640e-11 1.268908e+01 
-9.297765e-01 1.905211e+00 3 -4.162170e-02 -9.456598e+01 0 7.029567e+01 -6.867640e-11 1.268908e+01 
-9.177546e-01 2.673082e+00 3 -4.236614e-02 -7.756670e+01 0 -1.430023e+02 -6.867640e-11 1.268908e+01 
-9.048271e-01 2.196584e+00 3 -4.305581e-02 -6.965749e+01 0 6.546460e+01 -6.867640e-11 1.268908e+01 
-8.910065e-01 2.944777e+00 3 -4.351192e-02 -5.304086e+01 0 -1.133729e+02 -6.867640e-11 1.268908e+01 
-8.763067e-01 2.411488e+00 3 -4.394774e-02 -4.559942e+01 0 5.819130e+01 -6.867640e-11 1.268908e+01 
-8.607420e-01 3.130743e+00 3 -4.416906e-02 -3.114553e+01 0 -8.772154e+01 -6.867640e-11 1.268908e+01 
-8.443279e-01 2.550593e+00 3 -4.442187e-02 -2.587975e+01 0 5.007452e+01 -6.867640e-11 1.268908e+01 
-8.270806e-01 3.240608e+00 3 -4.448718e-02 -1.481075e+01 0 -6.705356e+01 -6.867640e-11 1.268908e+01 
-8.090170e-01 2.627017e+00 3 -4.463518e-02 -1.254967e+01 0 4.206834e+01 -6.867640e-11 1.268908e+01 
-7.901550e-01 3.294279e+00 3 -4.461570e-02 -4.975820e+00 0 -5.149271e+01 -6.867640e-11 1.268908e+01 
-7.705132e-01 2.661321e+00 3 -4.471838e-02 -5.377299e+00 0 3.476175e+01 -6.867640e-11 1.268908e+01 
-7.501111e-01 3.314875e+00 3 -4.466051e-02 -4.121099e-01 0 -4.030221e+01 -6.867640e-11 1.268908e+01 
-7.289686e-01 2.673473e+00 3 -4.475101e-02 -2.403755e+00 0 2.849812e+01 -6.867640e-11 1.268908e+01 
-7.071068e-01 3.320691e+00 3 -4.467693e-02 1.109568e+00 0 -3.229020e+01 -6.867640e-11 1.268908e+01 
-6.845471e-01 2.676841e+00 3 -4.476865e-02 -1.451518e+00 0 2.337370e+01 -6.867640e-11 1.268908e+01 
-6.613119e-01 3.321748e+00 3 -4.468605e-02 1.399118e+00 0 -2.635349e+01 -6.867640e-11 1.268908e+01 
-6.374240e-01 2.677642e+00 3 -4.478277e-02 -1.172224e+00 0 1.926832e+01 -6.867640e-11 1.268908e+01 
-6.129071e-01 3.321781e+00 3 -4.469363e-02 1.346071e+00 0 -2.174861e+01 -6.867640e-11 1.268908e+01 
-5.877853e-01 2.677866e+00 3 -4.479588e-02 -1.044325e+00 0 1.596545e+01 -6.867640e-11 1.268908e+01 
-5.620834e-01 3.321706e+00 3 -4.470070e-02 1.228544e+00 0 -1.804411e+01 -6.867640e-11 1.268908e+01 
-5.358268e-01 2.677961e+00 3 -4.480826e-02 -9.389571e-01 0 1.326125e+01 -6.867640e-11 1.268908e+01 
-5.090414e-01 3.321659e+00 3 -4.470733e-02 1.102327e+00 0 -1.498442e+01 -6.867640e-11 1.268908e+01 
-4.817537e-01 2.678008e+00 3 -4.481981e-02 -8.356476e-01 0 1.100138e+01 -6.867640e-11 1.268908e+01 
-4.539905e-01 3.321638e+00 3 -4.471347e-02 9.746835e-01 0 -1.240253e+01 -6.867640e-11 1.268908e+01 
-4.257793e-01 2.678028e+00 3 -4.483040e-02 -7.322205e-01 0 9.074923e+00 -6.867640e-11 1.268908e+01 
-3.971479e-01 3.321636e+00 3 -4.471904e-02 8.462972e-01 0 -1.018065e+01 -6.867640e-11 1.268908e+01 
-3.681246e-01 2.678030e+00 3 -4.483988e-02 -6.284725e-01 0 7.400960e+00 -6.867640e-11 1.268908e+01 
-3.387379e-01 3.321645e+00 3 -4.472396e-02 7.172730e-01 0 -8.231859e+00 -6.867640e-11 1.268908e+01 
-3.090170e-01 2.678023e+00 3 -4.484813e-02 -5.243779e-01 0 5.918643e+00 -6.867640e-11 1.268908e+01 
-2.789911e-01 3.321659e+00 3 -4.472817e-02 5.876842e-01 0 -6.489841e+00 -6.867640e-11 1.268908e+01 
-2.486899e-01 2.678011e+00 3 -4.485504e-02 -4.199524e-01 0 4.580754e+00 -6.867640e-11 1.268908e+01 
-2.181432e-01 3.321674e+00 3 -4.473161e-02 4.576129e-01 0 -4.902317e+00 -6.867640e-11 1.268908e+01 
-1.873813e-01 2.677999e+00 3 -4.486052e-02 -3.152374e-01 0 3.349432e+00 -6.867640e-11 1.268908e+01 
-1.564345e-01 3.321688e+00 3 -4.473423e-02 3.271528e-01 0 -3.426661e+00 -6.867640e-11 1.268908e+01 
-1.253332e-01 2.677988e+00 3 -4.486449e-02 -2.102919e-01 0 2.193224e+00 -6.867640e-11 1.268908e+01 
-9.410831e-02 3.321698e+00 3 -4.473600e-02 1.964077e-01 0 -2.026782e+00 -6.867640e-11 1.268908e+01 
-6.279052e-02 2.677981e+00 3 -4.486689e-02 -1.051867e-01 0 1.084941e+00 -6.867640e-11 1.268908e+01 
-3.141076e-02 3.321703e+00 3 -4.473690e-02 6.548872e-02 0 -6.708008e-01 -6.867640e-11 1.268908e+01 
-1.110223e-16 2.677979e+00 3 -4.486770e-02 -1.571486e-10 0 1.781295e-10 -6.867640e-11 1.268908e+01 
3.141076e-02 3.321703e+00 3 -4.473690e-02 -6.548872e-02 0 6.708008e-01 -6.867640e-11 1.268908e+01 
6.279052e-02 2.677981e+00 3 -4.486689e-02 1.051867e-01 0 -1.084941e+00 -6.867640e-11 1.268908e+01 
9.410831e-02 3.321698e+00 3 -4.473600e-02 -1.964077e-01 0 2.026782e+00 -6.867640e-11 1.268908e+01 
1.253332e-01 2.677988e+00 3 -4.486449e-02 2.102919e-01 0 -2.193224e+00 -6.867640e-11 1.268908e+01 
1.564345e-01 3.321688e+00 3 -4.473423e-02 -3.271528e-01 0 3.426661e+00 -6.867640e-11 1.268908e+01 
1.873813e-01 2.677999e+00 3 -4.486052e-02 3.152374e-01 0 -3.349432e+00 -6.867640e-11 1.268908e+01 
2.181432e-01 3.321674e+00 3 -4.473161e-02 -4.576129e-01 0 4.902317e+00 -6.867640e-11 1.268908e+01 
2.486899e-01 2.678011e+00 3 -4.485504e-02 4.199524e-01 0 -4.580754e+00 -6.867640e-11 1.268908e+01 
2.789911e-01 3.321659e+00 3 -4.472817e-02 -5.876842e-01 0 6.489841e+00 -6.867640e-11 1.268908e+01 
3.090170e-01 2.678023e+00 3 -4.484813e-02 5.243778e-01 0 -5.918643e+00 -6.867640e-11 1.268908e+01 
3.387379e-01 3.321645e+00 3 -4.472396e-02 -7.172730e-01 0 8.231859e+00 -6.867640e-11 1.268908e+01 
3.681246e-01 2.678030e+00 3 -4.483988e-02 6.284725e-01 0 -7.400960e+00 -6.867640e-11 1.268908e+01 
3.971479e-01 3.321636e+00 3 -4.471904e-02 -8.462972e-01 0 1.018065e+01 -6.867640e-11 1.268908e+01 
4.257793e-01 2.678028e+00 3 -4.483040e-02 7.322205e-01 0 -9.074923e+00 -6.867640e-11 1.268908e+01 
4.539905e-01 3.321638e+00 3 -4.471347e-02 -9.746835e-01 0 1.240253e+01 -6.867640e-11 1.268908e+01 
4.817537e-01 2.678008e+00 3 -4.481981e-02 8.356476e-01 0 -1.100138e+01 -6.867640e-11 1.268908e+01 
5.090414e-01 3.321659e+00 3 -4.470733e-02 -1.102327e+00 0 1.498442e+01 -6.867640e-11 1.268908e+01 
5.358268e-01 2.677961e+00 3 -4.480826e-02 9.389571e-01 0 -1.326125e+01 -6.867640e-11 1.268908e+01 
5.620834e-01 3.321706e+00 3 -4.470070e-02 -1.228544e+00 0 1.804411e+01 -6.867640e-11 1.268908e+01 
5.877853e-01 2.677866e+00 3 -4.479588e-02 1.044325e+00 0 -1.596545e+01 -6.867640e-11 1.268908e+01 
6.129071e-01 3.321781e+00 3 -4.469363e-02 -1.346071e+00 0 2.174861e+01 -6.867640e-11 1.268908e+01 
6.374240e-01 2.677642e+00 3 -4.478277e-02 1.172224e+00 0 -1.926832e+01 -6.867640e-11 1.268908e+01 
6.613119e-01 3.321748e+00 3 -4.468605e-02 -1.399118e+00 0 2.635349e+01 -6.867640e-11 1.268908e+01 
6.845471e-01 2.676841e+00 3 -4.476865e-02 1.451518e+00 0 -2.337370e+01 -6.867640e-11 1.268908e+01 
7.071068e-01 3.320691e+00 3 -4.467693e-02 -1.109568e+00 0 3.229020e+01 -6.867640e-11 1.268908e+01 
7.289686e-01 2.673473e+00 3 -4.475101e-02 2.403755e+00 0 -2.849812e+01 -6.867640e-11 1.268908e+01 
7.501111e-01 3.314875e+00 3 -4.466051e-02 4.121099e-01 0 4.030221e+01 -6.867640e-11 1.268908e+01 
7.705132e-01 2.661321e+00 3 -4.471838e-02 5.377299e+00 0 -3.476175e+01 -6.867640e-11 1.268908e+01 
7.901550e-01 3.294279e+00 3 -4.461570e-02 4.975820e+00 0 5.149271e+01 -6.867640e-11 1.268908e+01 
8.090170e-01 2.627017e+00 3 -4.463518e-02 1.254967e+01 0 -4.206834e+01 -6.867640e-11 1.268908e+01 
8.270806e-01 3.240608e+00 3 -4.448718e-02 1.481075e+01 0 6.705356e+01 -6.867640e-11 1.268908e+01 
8.443279e-01 2.550593e+00 3 -4.442187e-02 2.587975e+01 0 -5.007452e+01 -6.867640e-11 1.268908e+01 
8.607420e-01 3.130743e+00 3 -4.416906e-02 3.114553e+01 0 8.772154e+01 -6.867640e-11 1.268908e+01 
8.763067e-01 2.411488e+00 3 -4.394774e-02 4.559942e+01 0 -5.819130e+01 -6.867640e-11 1.268908e+01 
8.910065e-01 2.944777e+00 3 -4.351192e-02 5.304086e+01 0 1.133729e+02 -6.867640e-11 1.268908e+01 
9.048271e-01 2.196584e+00 3 -4.305581e-02 6.965749e+01 0 -6.546460e+01 -6.867640e-11 1.268908e+01 
9.177546e-01 2.673082e+00 3 -4.236614e-02 7.756670e+01 0 1.430023e+02 -6.867640e-11 1.268908e+01 
9.297765e-01 1.905211e+00 3 -4.162170e-02 9.456598e+01 0 -7.029567e+01 -6.867640e-11 1.268908e+01 
9.408808e-01 2.318515e+00 3 -4.065039e-02 1.010646e+02 0 1.748592e+02 -6.867640e-11 1.268908e+01 
9.510565e-01 1.549610e+00 3 -3.962385e-02 1.168424e+02 0 -7.000691e+01 -6.867640e-11 1.268908e+01 
9.602937e-01 1.894279e+00 3 -3.841559e-02 1.204949e+02 0 2.062692e+02 -6.867640e-11 1.268908e+01 
9.685832e-01 1.152914e+00 3 -3.719375e-02 1.341192e+02 0 -6.014841e+01 -6.867640e-11 1.268908e+01 
9.759168e-01 1.420170e+00 3 -3.587532e-02 1.341961e+02 0 2.324961e+02 -6.867640e-11 1.268908e+01 
9.822873e-01 7.478600e-01 3 -3.462225e-02 1.455742e+02 0 -3.350159e+01 -6.867640e-11 1.268908e+01 
9.876883e-01 9.204825e-01 3 -3.338633e-02 1.419665e+02 0 2.435268e+02 -6.867640e-11 1.268908e+01 
9.921147e-01 3.794015e-01 3 -3.231439e-02 1.518390e+02 0 1.964990e+01 -6.867640e-11 1.268908e+01 
9.955620e-01 4.317227e-01 3 -3.137966e-02 1.446616e+02 0 2.195137e+02 -6.867640e-11 1.268908e+01 
9.980267e-01 1.115580e-01 3 -3.069963e-02 1.549126e+02 0 9.921974e+01 -6.867640e-11 1.268908e+01 
9.995066e-01 6.284637e-02 3 -3.025534e-02 1.427918e+02 0 1.578461e+02 -6.867640e-11 1.268908e+01 
1 1.723217e-02 3 -3.011241e-02 1.724123e+02 0 1.559046e+02 -6.867640e-11 1.268908e+01 
ZONE T="0.002", I=101
-1 1.812118e-02 3 -4.267205e-02 -1.260022e+02 0 -1.165809e+02 -5.830807e-11 1.245883e+01 
-9.995066e-01 4.848036e-02 3 -4.287883e-02 -1.026720e+02 0 -1.071904e+02 -5.830807e-11 1.245883e+01 
-9.980267e-01 9.763277e-02 3 -4.350435e-02 -1.122380e+02 0 -8.436481e+01 -5.830807e-11 1.245883e+01 
-9.955620e-01 2.854759e-01 3 -4.449953e-02 -1.044496e+02 0 -1.244977e+02 -5.830807e-11 1.245883e+01 
-9.921147e-01 3.171874e-01 3 -4.585709e-02 -1.105448e+02 0 -4.127246e+01 -5.830807e-11 1.245883e+01 
-9.876883e-01 6.434338e-01 3 -4.748522e-02 -1.036067e+02 0 -1.330904e+02 -5.830807e-11 1.245883e+01 
-9.822873e-01 6.249235e-01 3 -4.936952e-02 -1.077093e+02 0 -7.167800e+00 -5.830807e-11 1.245883e+01 
-9.759168e-01 1.041923e+00 3 -5.139285e-02 -1.003403e+02 0 -1.297031e+02 -5.830807e-11 1.245883e+01 
-9.685832e-01 9.742411e-01 3 -5.354629e-02 -1.025248e+02 0 1.387598e+01 -5.830807e-11 1.245883e+01 
-9.602937e-01 1.444052e+00 3 -5.570062e-02 -9.419025e+01 0 -1.192774e+02 -5.830807e-11 1.245883e+01 
-9.510565e-01 1.332037e+00 3 -5.786548e-02 -9.444719e+01 0 2.528812e+01 -5.830807e-11 1.245883e+01 
-9.408808e-01 1.827917e+00 3 -5.990979e-02 -8.497217e+01 0 -1.056228e+02 -5.830807e-11 1.245883e+01 
-9.297765e-01 1.674320e+00 3 -6.187209e-02 -8.343645e+01 0 3.054298e+01 -5.830807e-11 1.245883e+01 
-9.177546e-01 2.177082e+00 3 -6.362581e-02 -7.295598e+01 0 -9.085735e+01 -5.830807e-11 1.245883e+01 
-9.048271e-01 1.982928e+00 3 -6.524445e-02 -6.999066e+01 0 3.202963e+01 -5.830807e-11 1.245883e+01 
-8.910065e-01 2.478679e+00 3 -6.660764e-02 -5.893138e+01 0 -7.618103e+01 -5.830807e-11 1.245883e+01 
-8.763067e-01 2.244661e+00 3 -6.782494e-02 -5.513414e+01 0 3.127575e+01 -5.830807e-11 1.245883e+01 
-8.607420e-01 2.723929e+00 3 -6.877939e-02 -4.415291e+01 0 -6.236723e+01 -5.830807e-11 1.245883e+01 
-8.443279e-01 2.451756e+00 3 -6.961302e-02 -4.027953e+01 0 2.924226e+01 -5.830807e-11 1.245883e+01 
-8.270806e-01 2.909320e+00 3 -7.020602e-02 -3.012858e+01 0 -4.997439e+01 -5.830807e-11 1.245883e+01 
-8.090170e-01 2.602667e+00 3 -7.072612e-02 -2.693349e+01 0 2.652466e+01 -5.830807e-11 1.245883e+01 
-7.901550e-01 3.037473e+00 3 -7.104287e-02 -1.826237e+01 0 -3.939409e+01 -5.830807e-11 1.245883e+01 
-7.705132e-01 2.702233e+00 3 -7.134207e-02 -1.629471e+01 0 2.349013e+01 -5.830807e-11 1.245883e+01 
-7.501111e-01 3.116861e+00 3 -7.147582e-02 -9.451881e+00 0 -3.081667e+01 -5.830807e-11 1.245883e+01 
-7.289686e-01 2.760511e+00 3 -7.164187e-02 -8.894902e+00 0 2.037957e+01 -5.830807e-11 1.245883e+01 
-7.071068e-01 3.159919e+00 3 -7.167095e-02 -3.831589e+00 0 -2.418871e+01 -5.830807e-11 1.245883e+01 
-6.845471e-01 2.790103e+00 3 -7.176974e-02 -4.484997e+00 0 1.737460e+01 -5.830807e-11 1.245883e+01 
-6.613119e-01 3.179853e+00 3 -7.174715e-02 -8.337734e-01 0 -1.923132e+01 -5.830807e-11 1.245883e+01 
-6.374240e-01 2.802854e+00 3 -7.181871e-02 -2.265205e+00 0 1.461787e+01 -5.830807e-11 1.245883e+01 
-6.129071e-01 3.187526e+00 3 -7.177354e-02 4.496534e-01 0 -1.554206e+01 -5.830807e-11 1.245883e+01 
-5.877853e-01 2.807431e+00 3 -7.183750e-02 -1.317104e+00 0 1.219732e+01 -5.830807e-11 1.245883e+01 
-5.620834e-01 3.189918e+00 3 -7.178268e-02 8.472800e-01 0 -1.272858e+01 -5.830807e-11 1.245883e+01 
-5.358268e-01 2.808788e+00 3 -7.184664e-02 -9.485856e-01 0 1.013207e+01 -5.830807e-11 1.245883e+01 
-5.090414e-01 3.190506e+00 3 -7.178684e-02 8.867097e-01 0 -1.049472e+01 -5.830807e-11 1.245883e+01 
-4.817537e-01 2.809121e+00 3 -7.185302e-02 -7.850134e-01 0 8.386352e+00 -5.830807e-11 1.245883e+01 
-4.539905e-01 3.190619e+00 3 -7.178969e-02 8.134649e-01 0 -8.650940e+00 -5.830807e-11 1.245883e+01 
-4.257793e-01 2.809187e+00 3 -7.185844e-02 -6.769558e-01 0 6.900624e+00 -5.830807e-11 1.245883e+01 
-3.971479e-01 3.190642e+00 3 -7.179210e-02 7.123270e-01 0 -7.082399e+00 -5.830807e-11 1.245883e+01 
-3.681246e-01 2.809191e+00 3 -7.186323e-02 -5.800334e-01 0 5.616044e+00 -5.830807e-11 1.245883e+01 
-3.387379e-01 3.190658e+00 3 -7.179419e-02 6.052385e-01 0 -5.715854e+00 -5.830807e-11 1.245883e+01 
-3.090170e-01 2.809179e+00 3 -7.186738e-02 -4.843629e-01 0 4.483967e+00 -5.830807e-11 1.245883e+01 
-2.789911e-01 3.190675e+00 3 -7.179598e-02 4.965590e-01 0 -4.499910e+00 -5.830807e-11 1.245883e+01 
-2.486899e-01 2.809163e+00 3 -7.187086e-02 -3.883128e-01 0 3.466133e+00 -5.830807e-11 1.245883e+01 
-2.181432e-01 3.190693e+00 3 -7.179744e-02 3.870455e-01 0 -3.395591e+00 -5.830807e-11 1.245883e+01 
-1.873813e-01 2.809147e+00 3 -7.187361e-02 -2.917447e-01 0 2.532150e+00 -5.830807e-11 1.245883e+01 
-1.564345e-01 3.190709e+00 3 -7.179856e-02 2.769144e-01 0 -2.371703e+00 -5.830807e-11 1.245883e+01 
-1.253332e-01 2.809134e+00 3 -7.187561e-02 -1.947468e-01 0 1.657044e+00 -5.830807e-11 1.245883e+01 
-9.410831e-02 3.190720e+00 3 -7.179931e-02 1.663327e-01 0 -1.402126e+00 -5.830807e-11 1.245883e+01 
-6.279052e-02 2.809125e+00 3 -7.187682e-02 -9.744986e-02 0 8.194096e-01 -5.830807e-11 1.245883e+01 
-3.141076e-02 3.190726e+00 3 -7.179969e-02 5.547520e-02 0 -4.639498e-01 -5.830807e-11 1.245883e+01 
-1.110223e-16 2.809122e+00 3 -7.187723e-02 1.418509e-09 0 3.012302e-10 -5.830807e-11 1.245883e+01 
3.141076e-02 3.190726e+00 3 -7.179969e-02 -5.547520e-02 0 4.639498e-01 -5.830807e-11 1.245883e+01 
6.279052e-02 2.809125e+00 3 -7.187682e-02 9.744986e-02 0 -8.194096e-01 -5.830807e-11 1.245883e+01 
9.410831e-02 3.190720e+00 3 -7.179931e-02 -1.663327e-01 0 1.402126e+00 -5.830807e-11 1.245883e+01 
1.253332e-01 2.809134e+00 3 -7.187561e-02 1.947468e-01 0 -1.657044e+00 -5.830807e-11 1.245883e+01 
1.564345e-01 3.190709e+00 3 -7.179856e-02 -2.769144e-01 0 2.371703e+00 -5.830807e-11 1.245883e+01 
1.873813e-01 2.809147e+00 3 -7.187361e-02 2.917447e-01 0 -2.532150e+00 -5.830807e-11 1.245883e+01 
2.181432e-01 3.190693e+00 3 -7.179744e-02 -3.870455e-01 0 3.395591e+00 -5.830807e-11 1.245883e+01 
2.486899e-01 2.809163e+00 3 -7.187086e-02 3.883128e-01 0 -3.466133e+00 -5.830807e-11 1.245883e+01 
2.789911e-01 3.190675e+00 3 -7.179598e-02 -4.965590e-01 0 4.499910e+00 -5.830807e-11 1.245883e+01 
3.090170e-01 2.809179e+00 3 -7.186738e-02 4.843629e-01 0 -4.483967e+00 -5.830807e-11 1.245883e+01 
3.387379e-01 3.190658e+00 3 -7.179419e-02 -6.052385e-01 0 5.715854e+00 -5.830807e-11 1.245883e+01 
3.681246e-01 2.809191e+00 3 -7.186323e-02 5.800334e-01 0 -5.616044e+00 -5.830807e-11 1.245883e+01 
3.971479e-01 3.190642e+00 3 -7.179210e-02 -7.123270e-01 0 7.082399e+00 -5.830807e-11 1.245883e+01 
4.257793e-01 2.809187e+00 3 -7.185844e-02 6.769558e-01 0 -6.900624e+00 -5.830807e-11 1.245883e+01 
4.539905e-01 3.190619e+00 3 -7.178969e-02 -8.134649e-01 0 8.650940e+00 -5.830807e-11 1.245883e+01 
4.817537e-01 2.809121e+00 3 -7.185302e-02 7.850134e-01 0 -8.386352e+00 -5.830807e-11 1.245883e+01 
5.090414e-01 3.190506e+00 3 -7.178684e-02 -8.867097e-01 0 1.049472e+01 -5.830807e-11 1.245883e+01 
5.358268e-01 2.808788e+00 3 -7.184664e-02 9.485856e-01 0 -1.013207e+01 -5.830807e-11 1.245883e+01 
5.620834e-01 3.189918e+00 3 -7.178268e-02 -8.472800e-01 0 1.272858e+01 -5.830807e-11 1.245883e+01 
5.877853e-01 2.807431e+00 3 -7.183750e-02 1.317104e+00 0 -1.219732e+01 -5.830807e-11 1.245883e+01 
6.129071e-01 3.187526e+00 3 -7.177354e-02 -4.496534e-01 0 1.554206e+01 -5.830807e-11 1.245883e+01 
6.374240e-01 2.802854e+00 3 -7.181871e-02 2.265205e+00 0 -1.461787e+01 -5.830807e-11 1.245883e+01 
6.613119e-01 3.179853e+00 3 -7.174715e-02 8.337734e-01 0 1.923132e+01 -5.830807e-11 1.245883e+01 
6.845471e-01 2.790103e+00 3 -7.176974e-02 4.484997e+00 0 -1.737460e+01 -5.830807e-11 1.245883e+01 
7.071068e-01 3.159919e+00 3 -7.167095e-02 3.831589e+00 0 2.418871e+01 -5.830807e-11 1.245883e+01 
7.289686e-01 2.760511e+00 3 -7.164187e-02 8.894902e+00 0 -2.037957e+01 -5.830807e-11 1.245883e+01 
7.501111e-01 3.116861e+00 3 -7.147582e-02 9.451881e+00 0 3.081667e+01 -5.830807e-11 1.245883e+01 
7.705132e-01 2.702233e+00 3 -7.134207e-02 1.629471e+01 0 -2.349013e+01 -5.830807e-11 1.245883e+01 
7.901550e-01 3.037473e+00 3 -7.104287e-02 1.826237e+01 0 3.939409e+01 -5.830807e-11 1.245883e+01 
8.090170e-01 2.602667e+00 3 -7.072612e-02 2.693349e+01 0 -2.652466e+01 -5.830807e-11 1.245883e+01 
8.270806e-01 2.909320e+00 3 -7.020602e-02 3.012858e+01 0 4.997439e+01 -5.830807e-11 1.245883e+01 
8.443279e-01 2.451756e+00 3 -6.961302e-02 4.027953e+01 0 -2.924226e+01 -5.830807e-11 1.245883e+01 
8.607420e-01 2.723929e+00 3 -6.877939e-02 4.415291e+01 0 6.236723e+01 -5.830807e-11 1.245883e+01 
8.763067e-01 2.244661e+00 3 -6.782494e-02 5.513414e+01 0 -3.127575e+01 -5.830807e-11 1.245883e+01 
8.910065e-01 2.478679e+00 3 -6.660764e-02 5.893138e+01 0 7.618103e+01 -5.830807e-11 1.245883e+01 
9.048271e-01 1.982928e+00 3 -6.524445e-02 6.999066e+01 0 -3.202963e+01 -5.830807e-11 1.245883e+01 
9.177546e-01 2.177082e+00 3 -6.362581e-02 7.295598e+01 0 9.085735e+01 -5.830807e-11 1.245883e+01 
9.297765e-01 1.674320e+00 3 -6.187209e-02 8.343645e+01 0 -3.054298e+01 -5.830807e-11 1.245883e+01 
9.408808e-01 1.827917e+00 3 -5.990979e-02 8.497217e+01 0 1.056228e+02 -5.830807e-11 1.245883e+01 
9.510565e-01 1.332037e+00 3 -5.786548e-02 9.444719e+01 0 -2.528812e+01 -5.830807e-11 1.245883e+01 
9.602937e-01 1.444052e+00 3 -5.570062e-02 9.419025e+01 0 1.192774e+02 -5.830807e-11 1.245883e+01 
9.685832e-01 9.742411e-01 3 -5.354629e-02 1.025248e+02 0 -1.387598e+01 -5.830807e-11 1.245883e+01 
9.759168e-01 1.041923e+00 3 -5.139285e-02 1.003403e+02 0 1.297031e+02 -5.830807e-11 1.245883e+01 
9.822873e-01 6.249235e-01 3 -4.936952e-02 1.077093e+02 0 7.167800e+00 -5.830807e-11 1.245883e+01 
9.876883e-01 6.434338e-01 3 -4.748522e-02 1.036067e+02 0 1.330904e+02 -5.830807e-11 1.245883e+01 
9.921147e-01 3.171874e-01 3 -4.585709e-02 1.105448e+02 0 4.127246e+01 -5.830807e-11 1.245883e+01 
9.955620e-01 2.854759e-01 3 -4.449953e-02 1.044496e+02 0 1.244977e+02 -5.830807e-11 1.245883e+01 
9.980267e-01 9.763277e-02 3 -4.350435e-02 1.122380e+02 0 8.436481e+01 -5.830807e-11 1.245883e+01 
9.995066e-01 4.848036e-02 3 -4.287883e-02 1.026720e+02 0 1.071904e+02 -5.830807e-11 1.245883e+01 
1 1.812118e-02 3 -4.267205e-02 1.260022e+02 0 1.165809e+02 -5.830807e-11 1.245883e+01 
ZONE T="0.003", I=101
-1 1.920292e-02 3 -5.240711e-02 -9.764382e+01 0 -9.195847e+01 -9.902080e-11 1.229465e+01 
-9.995066e-01 4.237889e-02 3 -5.266308e-02 -8.548723e+01 0 -8.615258e+01 -9.902080e-11 1.229465e+01 
-9.980267e-01 9.137093e-02 3 -5.342982e-02 -9.046631e+01 0 -7.436309e+01 -9.902080e-11 1.229465e+01 
-9.955620e-01 2.199842e-01 3 -5.466848e-02 -8.641882e+01 0 -8.858584e+01 -9.902080e-11 1.229465e+01 
-9.921147e-01 2.876852e-01 3 -5.635590e-02 -8.957252e+01 0 -4.872316e+01 -9.902080e-11 1.229465e+01 
-9.876883e-01 5.074976e-01 3 -5.841628e-02 -8.593866e+01 0 -8.754431e+01 -9.902080e-11 1.229465e+01 
-9.822873e-01 5.644311e-01 3 -6.081087e-02 -8.801084e+01 0 -2.616212e+01 -9.902080e-11 1.229465e+01 
-9.759168e-01 8.454980e-01 3 -6.344104e-02 -8.404149e+01 0 -8.265896e+01 -9.902080e-11 1.229465e+01 
-9.685832e-01 8.827916e-01 3 -6.626437e-02 -8.500398e+01 0 -1.041663e+01 -9.902080e-11 1.229465e+01 
-9.602937e-01 1.200183e+00 3 -6.917192e-02 -8.035078e+01 0 -7.536866e+01 -9.902080e-11 1.229465e+01 
-9.510565e-01 1.215156e+00 3 -7.213000e-02 -8.012714e+01 0 -3.262282e-01 -9.902080e-11 1.229465e+01 
-9.408808e-01 1.550690e+00 3 -7.502999e-02 -7.463429e+01 0 -6.696703e+01 -9.902080e-11 1.229465e+01 
-9.297765e-01 1.541589e+00 3 -7.785750e-02 -7.322626e+01 0 5.851452e+00 -9.902080e-11 1.229465e+01 
-9.177546e-01 1.881843e+00 3 -8.051197e-02 -6.690274e+01 0 -5.824216e+01 -9.902080e-11 1.229465e+01 
-9.048271e-01 1.846821e+00 3 -8.300554e-02 -6.443735e+01 0 9.446258e+00 -9.902080e-11 1.229465e+01 
-8.910065e-01 2.181689e+00 3 -8.524985e-02 -5.745409e+01 0 -4.965242e+01 -9.902080e-11 1.229465e+01 
-8.763067e-01 2.119063e+00 3 -8.728680e-02 -5.419787e+01 0 1.135618e+01 -9.902080e-11 1.229465e+01 
-8.607420e-01 2.441117e+00 3 -8.904039e-02 -4.687301e+01 0 -4.149063e+01 -9.902080e-11 1.229465e+01 
-8.443279e-01 2.349928e+00 3 -9.058140e-02 -4.321405e+01 0 1.216828e+01 -9.902080e-11 1.229465e+01 
-8.270806e-01 2.654270e+00 3 -9.184275e-02 -3.597061e+01 0 -3.397474e+01 -9.902080e-11 1.229465e+01 
-8.090170e-01 2.534833e+00 3 -9.291973e-02 -3.236515e+01 0 1.225743e+01 -9.902080e-11 1.229465e+01 
-7.901550e-01 2.819122e+00 3 -9.374823e-02 -2.565666e+01 0 -2.728325e+01 -9.902080e-11 1.229465e+01 
-7.705132e-01 2.673390e+00 3 -9.444155e-02 -2.254420e+01 0 1.185579e+01 -9.902080e-11 1.229465e+01 
-7.501111e-01 2.937790e+00 3 -9.493160e-02 -1.675794e+01 0 -2.155263e+01 -9.902080e-11 1.229465e+01 
-7.289686e-01 2.769380e+00 3 -9.534281e-02 -1.446360e+01 0 1.110753e+01 -9.902080e-11 1.229465e+01 
-7.071068e-01 3.016237e+00 3 -9.559706e-02 -9.828036e+00 0 -1.685309e+01 -9.902080e-11 1.229465e+01 
-6.845471e-01 2.830011e+00 3 -9.582438e-02 -8.486684e+00 0 1.011490e+01 -9.902080e-11 1.229465e+01 
-6.613119e-01 3.063141e+00 3 -9.593276e-02 -5.021692e+00 0 -1.316313e+01 -9.902080e-11 1.229465e+01 
-6.374240e-01 2.864403e+00 3 -9.605475e-02 -4.561146e+00 0 8.971048e+00 -9.902080e-11 1.229465e+01 
-6.129071e-01 3.088099e+00 3 -9.608339e-02 -2.100096e+00 0 -1.036553e+01 -9.902080e-11 1.229465e+01 
-5.877853e-01 2.881655e+00 3 -9.615314e-02 -2.297613e+00 0 7.771141e+00 -9.902080e-11 1.229465e+01 
-5.620834e-01 3.099730e+00 3 -9.614330e-02 -5.742107e-01 0 -8.276608e+00 -9.902080e-11 1.229465e+01 
-5.358268e-01 2.889202e+00 3 -9.619122e-02 -1.158036e+00 0 6.601901e+00 -9.902080e-11 1.229465e+01 
-5.090414e-01 3.104408e+00 3 -9.616470e-02 8.947751e-02 0 -6.697478e+00 -9.902080e-11 1.229465e+01 
-4.817537e-01 2.892048e+00 3 -9.620543e-02 -6.507503e-01 0 5.523626e+00 -9.902080e-11 1.229465e+01 
-4.539905e-01 3.106010e+00 3 -9.617201e-02 3.107626e-01 0 -5.459604e+00 -9.902080e-11 1.229465e+01 
-4.257793e-01 2.892967e+00 3 -9.621143e-02 -4.377768e-01 0 4.561962e+00 -9.902080e-11 1.229465e+01 
-3.971479e-01 3.106474e+00 3 -9.617486e-02 3.442603e-01 0 -4.444144e+00 -9.902080e-11 1.229465e+01 
-3.681246e-01 2.893220e+00 3 -9.621486e-02 -3.375721e-01 0 3.714464e+00 -9.902080e-11 1.229465e+01 
-3.387379e-01 3.106589e+00 3 -9.617640e-02 3.118661e-01 0 -3.576624e+00 -9.902080e-11 1.229465e+01 
-3.090170e-01 2.893278e+00 3 -9.621738e-02 -2.727341e-01 0 2.963982e+00 -9.902080e-11 1.229465e+01 
-2.789911e-01 3.106615e+00 3 -9.617751e-02 2.601926e-01 0 -2.811693e+00 -9.902080e-11 1.229465e+01 
-2.486899e-01 2.893287e+00 3 -9.621940e-02 -2.168396e-01 0 2.289555e+00 -9.902080e-11 1.229465e+01 
-2.181432e-01 3.106624e+00 3 -9.617838e-02 2.036264e-01 0 -2.119904e+00 -9.902080e-11 1.229465e+01 
-1.873813e-01 2.893285e+00 3 -9.622098e-02 -1.626326e-01 0 1.671666e+00 -9.902080e-11 1.229465e+01 
-1.564345e-01 3.106630e+00 3 -9.617903e-02 1.458248e-01 0 -1.479911e+00 -9.902080e-11 1.229465e+01 
-1.253332e-01 2.893281e+00 3 -9.622213e-02 -1.085318e-01 0 1.093521e+00 -9.902080e-11 1.229465e+01 
-9.410831e-02 3.106634e+00 3 -9.617947e-02 8.761487e-02 0 -8.746352e-01 -9.902080e-11 1.229465e+01 
-6.279052e-02 2.893278e+00 3 -9.622282e-02 -5.430798e-02 0 5.406283e-01 -9.902080e-11 1.229465e+01 
-3.141076e-02 3.106636e+00 3 -9.617969e-02 2.922373e-02 0 -2.893656e-01 -9.902080e-11 1.229465e+01 
-1.110223e-16 2.893277e+00 3 -9.622305e-02 -2.877429e-09 0 -3.202493e-10 -9.902080e-11 1.229465e+01 
3.141076e-02 3.106636e+00 3 -9.617969e-02 -2.922372e-02 0 2.893656e-01 -9.902080e-11 1.229465e+01 
6.279052e-02 2.893278e+00 3 -9.622282e-02 5.430796e-02 0 -5.406283e-01 -9.902080e-11 1.229465e+01 
9.410831e-02 3.106634e+00 3 -9.617947e-02 -8.761487e-02 0 8.746352e-01 -9.902080e-11 1.229465e+01 
1.253332e-01 2.893281e+00 3 -9.622213e-02 1.085318e-01 0 -1.093521e+00 -9.902080e-11 1.229465e+01 
1.564345e-01 3.106630e+00 3 -9.617903e-02 -1.458248e-01 0 1.479911e+00 -9.902080e-11 1.229465e+01 
1.873813e-01 2.893285e+00 3 -9.622098e-02 1.626327e-01 0 -1.671666e+00 -9.902080e-11 1.229465e+01 
2.181432e-01 3.106624e+00 3 -9.617838e-02 -2.036264e-01 0 2.119904e+00 -9.902080e-11 1.229465e+01 
2.486899e-01 2.893287e+00 3 -9.621940e-02 2.168396e-01 0 -2.289555e+00 -9.902080e-11 1.229465e+01 
2.789911e-01 3.106615e+00 3 -9.617751e-02 -2.601926e-01 0 2.811693e+00 -9.902080e-11 1.229465e+01 
3.090170e-01 2.893278e+00 3 -9.621738e-02 2.727341e-01 0 -2.963982e+00 -9.902080e-11 1.229465e+01 
3.387379e-01 3.106589e+00 3 -9.617640e-02 -3.118660e-01 0 3.576624e+00 -9.902080e-11 1.229465e+01 
3.681246e-01 2.893220e+00 3 -9.621486e-02 3.375721e-01 0 -3.714464e+00 -9.902080e-11 1.229465e+01 
3.971479e-01 3.106474e+00 3 -9.617486e-02 -3.442603e-01 0 4.444144e+00 -9.902080e-11 1.229465e+01 
4.257793e-01 2.892967e+00 3 -9.621143e-02 4.377768e-01 0 -4.561962e+00 -9.902080e-11 1.229465e+01 
4.539905e-01 3.106010e+00 3 -9.617201e-02 -3.107626e-01 0 5.459604e+00 -9.902080e-11 1.229465e+01 
4.817537e-01 2.892048e+00 3 -9.620543e-02 6.507503e-01 0 -5.523626e+00 -9.902080e-11 1.229465e+01 
5.090414e-01 3.104408e+00 3 -9.616470e-02 -8.947751e-02 0 6.697478e+00 -9.902080e-11 1.229465e+01 
5.358268e-01 2.889202e+00 3 -9.619122e-02 1.158036e+00 0 -6.601901e+00 -9.902080e-11 1.229465e+01 
5.620834e-01 3.099730e+00 3 -9.614330e-02 5.742107e-01 0 8.276608e+00 -9.902080e-11 1.229465e+01 
5.877853e-01 2.881655e+00 3 -9.615314e-02 2.297613e+00 0 -7.771141e+00 -9.902080e-11 1.229465e+01 
6.129071e-01 3.088099e+00 3 -9.608339e-02 2.100096e+00 0 1.036553e+01 -9.902080e-11 1.229465e+01 
6.374240e-01 2.864403e+00 3 -9.605475e-02 4.561146e+00 0 -8.971048e+00 -9.902080e-11 1.229465e+01 
6.613119e-01 3.063141e+00 3 -9.593276e-02 5.021692e+00 0 1.316313e+01 -9.902080e-11 1.229465e+01 
6.845471e-01 2.830011e+00 3 -9.582438e-02 8.486684e+00 0 -1.011490e+01 -9.902080e-11 1.229465e+01 
7.071068e-01 3.016237e+00 3 -9.559706e-02 9.828036e+00 0 1.685309e+01 -9.902080e-11 1.229465e+01 
7.289686e-01 2.769380e+00 3 -9.534281e-02 1.446360e+01 0 -1.110753e+01 -9.902080e-11 1.229465e+01 
7.501111e-01 2.937790e+00 3 -9.493160e-02 1.675794e+01 0 2.155263e+01 -9.902080e-11 1.229465e+01 
7.705132e-01 2.673390e+00 3 -9.444155e-02 2.254420e+01 0 -1.185579e+01 -9.902080e-11 1.229465e+01 
7.901550e-01 2.819122e+00 3 -9.374823e-02 2.565666e+01 0 2.728325e+01 -9.902080e-11 1.229465e+01 
8.090170e-01 2.534833e+00 3 -9.291973e-02 3.236515e+01 0 -1.225743e+01 -9.902080e-11 1.229465e+01 
8.270806e-01 2.654270e+00 3 -9.184275e-02 3.597061e+01 0 3.397474e+01 -9.902080e-11 1.229465e+01 
8.443279e-01 2.349928e+00 3 -9.058140e-02 4.321405e+01 0 -1.216828e+01 -9.902080e-11 1.229465e+01 
8.607420e-01 2.441117e+00 3 -8.904039e-02 4.687301e+01 0 4.149063e+01 -9.902080e-11 1.229465e+01 
8.763067e-01 2.119063e+00 3 -8.728680e-02 5.419787e+01 0 -1.135618e+01 -9.902080e-11 1.229465e+01 
8.910065e-01 2.181689e+00 3 -8.524985e-02 5.745409e+01 0 4.965242e+01 -9.902080e-11 1.229465e+01 
9.048271e-01 1.846821e+00 3 -8.300554e-02 6.443735e+01 0 -9.446258e+00 -9.902080e-11 1.229465e+01 
9.177546e-01 1.881843e+00 3 -8.051197e-02 6.690274e+01 0 5.824216e+01 -9.902080e-11 1.229465e+01 
9.297765e-01 1.541589e+00 3 -7.785750e-02 7.322626e+01 0 -5.851452e+00 -9.902080e-11 1.229465e+01 
9.408808e-01 1.550690e+00 3 -7.502999e-02 7.463429e+01 0 6.696703e+01 -9.902080e-11 1.229465e+01 
9.510565e-01 1.215156e+00 3 -7.213000e-02 8.012714e+01 0 3.262283e-01 -9.902080e-11 1.229465e+01 
9.602937e-01 1.200183e+00 3 -6.917192e-02 8.035078e+01 0 7.536866e+01 -9.902080e-11 1.229465e+01 
9.685832e-01 8.827916e-01 3 -6.626437e-02 8.500398e+01 0 1.041663e+01 -9.902080e-11 1.229465e+01 
9.759168e-01 8.454980e-01 3 -6.344104e-02 8.404149e+01 0 8.265896e+01 -9.902080e-11 1.229465e+01 
9.822873e-01 5.644311e-01 3 -6.081087e-02 8.801084e+01 0 2.616212e+01 -9.902080e-11 1.229465e+01 
9.876883e-01 5.074976e-01 3 -5.841628e-02 8.593866e+01 0 8.754431e+01 -9.902080e-11 1.229465e+01 
9.921147e-01 2.876852e-01 3 -5.635590e-02 8.957252e+01 0 4.872316e+01 -9.902080e-11 1.229465e+01 