TITLE = "2 species of PNP-Steric with high order term" 
VARIABLES = "X" "Conc1" "Conc2" "phi" "Current_x""I_ext" "I_PNP" "CURRENT" "ENERGY" "
ZONE T="0.001", I=101
-1 3.745107e-02 3.745107e-02 1.142355e+00 -3.821818e+02 0 -3.821818e+02 6.385410e-10 7.092278e+01 
-9.995066e-01 8.506495e-02 8.506495e-02 1.148004e+00 -3.594924e+02 0 -3.594924e+02 6.385410e-10 7.092278e+01 
-9.980267e-01 1.915820e-01 1.915820e-01 1.164882e+00 -3.686917e+02 0 -3.686917e+02 6.385410e-10 7.092278e+01 
-9.955620e-01 4.710394e-01 4.710394e-01 1.193071e+00 -3.604872e+02 0 -3.604872e+02 6.385410e-10 7.092278e+01 
-9.921147e-01 6.118507e-01 6.118507e-01 1.232386e+00 -3.651120e+02 0 -3.651120e+02 6.385410e-10 7.092278e+01 
-9.876883e-01 1.142014e+00 1.142014e+00 1.282919e+00 -3.550152e+02 0 -3.550152e+02 6.385410e-10 7.092278e+01 
-9.822873e-01 1.184342e+00 1.184342e+00 1.344358e+00 -3.542535e+02 0 -3.542535e+02 6.385410e-10 7.092278e+01 
-9.759168e-01 1.914677e+00 1.914677e+00 1.416742e+00 -3.391252e+02 0 -3.391252e+02 6.385410e-10 7.092278e+01 
-9.685832e-01 1.754778e+00 1.754778e+00 1.499590e+00 -3.317103e+02 0 -3.317103e+02 6.385410e-10 7.092278e+01 
-9.602937e-01 2.588445e+00 2.588445e+00 1.592864e+00 -3.122505e+02 0 -3.122505e+02 6.385410e-10 7.092278e+01 
-9.510565e-01 2.188033e+00 2.188033e+00 1.695893e+00 -3.004883e+02 0 -3.004883e+02 6.385410e-10 7.092278e+01 
-9.408808e-01 3.030296e+00 3.030296e+00 1.808579e+00 -2.814854e+02 0 -2.814854e+02 6.385410e-10 7.092278e+01 
-9.297765e-01 2.430298e+00 2.430298e+00 1.930082e+00 -2.707986e+02 0 -2.707986e+02 6.385410e-10 7.092278e+01 
-9.177546e-01 3.236226e+00 3.236226e+00 2.060288e+00 -2.567770e+02 0 -2.567770e+02 6.385410e-10 7.092278e+01 
-9.048271e-01 2.522615e+00 2.522615e+00 2.198227e+00 -2.506235e+02 0 -2.506235e+02 6.385410e-10 7.092278e+01 
-8.910065e-01 3.299908e+00 3.299908e+00 2.343796e+00 -2.413850e+02 0 -2.413850e+02 6.385410e-10 7.092278e+01 
-8.763067e-01 2.542951e+00 2.542951e+00 2.495919e+00 -2.385243e+02 0 -2.385243e+02 6.385410e-10 7.092278e+01 
-8.607420e-01 3.313927e+00 3.313927e+00 2.654511e+00 -2.311644e+02 0 -2.311644e+02 6.385410e-10 7.092278e+01 
-8.443279e-01 2.542633e+00 2.542633e+00 2.818392e+00 -2.290342e+02 0 -2.290342e+02 6.385410e-10 7.092278e+01 
-8.270806e-01 3.319077e+00 3.319077e+00 2.987498e+00 -2.218037e+02 0 -2.218037e+02 6.385410e-10 7.092278e+01 
-8.090170e-01 2.538536e+00 2.538536e+00 3.160546e+00 -2.192912e+02 0 -2.192912e+02 6.385410e-10 7.092278e+01 
-7.901550e-01 3.323976e+00 3.323976e+00 3.337500e+00 -2.118123e+02 0 -2.118123e+02 6.385410e-10 7.092278e+01 
-7.705132e-01 2.533586e+00 2.533586e+00 3.516983e+00 -2.087332e+02 0 -2.087332e+02 6.385410e-10 7.092278e+01 
-7.501111e-01 3.329338e+00 3.329338e+00 3.698999e+00 -2.010011e+02 0 -2.010011e+02 6.385410e-10 7.092278e+01 
-7.289686e-01 2.528171e+00 2.528171e+00 3.882082e+00 -1.973550e+02 0 -1.973550e+02 6.385410e-10 7.092278e+01 
-7.071068e-01 3.335061e+00 3.335061e+00 4.066292e+00 -1.893996e+02 0 -1.893996e+02 6.385410e-10 7.092278e+01 
-6.845471e-01 2.522438e+00 2.522438e+00 4.250084e+00 -1.852047e+02 0 -1.852047e+02 6.385410e-10 7.092278e+01 
-6.613119e-01 3.341025e+00 3.341025e+00 4.433588e+00 -1.770563e+02 0 -1.770563e+02 6.385410e-10 7.092278e+01 
-6.374240e-01 2.516512e+00 2.516512e+00 4.615187e+00 -1.723345e+02 0 -1.723345e+02 6.385410e-10 7.092278e+01 
-6.129071e-01 3.347112e+00 3.347112e+00 4.795094e+00 -1.640230e+02 0 -1.640230e+02 6.385410e-10 7.092278e+01 
-5.877853e-01 2.510512e+00 2.510512e+00 4.971632e+00 -1.587989e+02 0 -1.587989e+02 6.385410e-10 7.092278e+01 
-5.620834e-01 3.353203e+00 3.353203e+00 5.145107e+00 -1.503543e+02 0 -1.503543e+02 6.385410e-10 7.092278e+01 
-5.358268e-01 2.504560e+00 2.504560e+00 5.313797e+00 -1.446549e+02 0 -1.446549e+02 6.385410e-10 7.092278e+01 
-5.090414e-01 3.359174e+00 3.359174e+00 5.478110e+00 -1.361066e+02 0 -1.361066e+02 6.385410e-10 7.092278e+01 
-4.817537e-01 2.498781e+00 2.498781e+00 5.636286e+00 -1.299613e+02 0 -1.299613e+02 6.385410e-10 7.092278e+01 
-4.539905e-01 3.364901e+00 3.364901e+00 5.788848e+00 -1.213376e+02 0 -1.213376e+02 6.385410e-10 7.092278e+01 
-4.257793e-01 2.493301e+00 2.493301e+00 5.934012e+00 -1.147785e+02 0 -1.147785e+02 6.385410e-10 7.092278e+01 
-3.971479e-01 3.370256e+00 3.370256e+00 6.072422e+00 -1.061061e+02 0 -1.061061e+02 6.385410e-10 7.092278e+01 
-3.681246e-01 2.488246e+00 2.488246e+00 6.202281e+00 -9.916836e+01 0 -9.916836e+01 6.385410e-10 7.092278e+01 
-3.387379e-01 3.375115e+00 3.375115e+00 6.324358e+00 -9.047145e+01 0 -9.047145e+01 6.385410e-10 7.092278e+01 
-3.090170e-01 2.483734e+00 2.483734e+00 6.436861e+00 -8.319298e+01 0 -8.319298e+01 6.385410e-10 7.092278e+01 
-2.789911e-01 3.379365e+00 3.379365e+00 6.540684e+00 -7.449394e+01 0 -7.449394e+01 6.385410e-10 7.092278e+01 
-2.486899e-01 2.479876e+00 2.479876e+00 6.634053e+00 -6.691470e+01 0 -6.691470e+01 6.385410e-10 7.092278e+01 
-2.181432e-01 3.382899e+00 3.382899e+00 6.717987e+00 -5.823435e+01 0 -5.823435e+01 6.385410e-10 7.092278e+01 
-1.873813e-01 2.476768e+00 2.476768e+00 6.790746e+00 -5.039540e+01 0 -5.039540e+01 6.385410e-10 7.092278e+01 
-1.564345e-01 3.385631e+00 3.385631e+00 6.853470e+00 -4.175428e+01 0 -4.175428e+01 6.385410e-10 7.092278e+01 
-1.253332e-01 2.474490e+00 2.474490e+00 6.904468e+00 -3.369631e+01 0 -3.369631e+01 6.385410e-10 7.092278e+01 
-9.410831e-02 3.387492e+00 3.387492e+00 6.944998e+00 -2.511604e+01 0 -2.511604e+01 6.385410e-10 7.092278e+01 
-6.279052e-02 2.473099e+00 2.473099e+00 6.973427e+00 -1.687790e+01 0 -1.687790e+01 6.385410e-10 7.092278e+01 
-3.141076e-02 3.388435e+00 3.388435e+00 6.991125e+00 -8.382607e+00 0 -8.382607e+00 6.385410e-10 7.092278e+01 
-6.123234e-17 2.472631e+00 2.472631e+00 6.996535e+00 3.113720e-08 0 3.113720e-08 6.385410e-10 7.092278e+01 
3.141076e-02 3.388435e+00 3.388435e+00 6.991125e+00 8.382607e+00 0 8.382607e+00 6.385410e-10 7.092278e+01 
6.279052e-02 2.473099e+00 2.473099e+00 6.973427e+00 1.687790e+01 0 1.687790e+01 6.385410e-10 7.092278e+01 
9.410831e-02 3.387492e+00 3.387492e+00 6.944998e+00 2.511604e+01 0 2.511604e+01 6.385410e-10 7.092278e+01 
1.253332e-01 2.474490e+00 2.474490e+00 6.904468e+00 3.369631e+01 0 3.369631e+01 6.385410e-10 7.092278e+01 
1.564345e-01 3.385631e+00 3.385631e+00 6.853470e+00 4.175428e+01 0 4.175428e+01 6.385410e-10 7.092278e+01 
1.873813e-01 2.476768e+00 2.476768e+00 6.790746e+00 5.039540e+01 0 5.039540e+01 6.385410e-10 7.092278e+01 
2.181432e-01 3.382899e+00 3.382899e+00 6.717987e+00 5.823435e+01 0 5.823435e+01 6.385410e-10 7.092278e+01 
2.486899e-01 2.479876e+00 2.479876e+00 6.634053e+00 6.691470e+01 0 6.691470e+01 6.385410e-10 7.092278e+01 
2.789911e-01 3.379365e+00 3.379365e+00 6.540684e+00 7.449394e+01 0 7.449394e+01 6.385410e-10 7.092278e+01 
3.090170e-01 2.483734e+00 2.483734e+00 6.436861e+00 8.319299e+01 0 8.319299e+01 6.385410e-10 7.092278e+01 
3.387379e-01 3.375115e+00 3.375115e+00 6.324358e+00 9.047145e+01 0 9.047145e+01 6.385410e-10 7.092278e+01 
3.681246e-01 2.488246e+00 2.488246e+00 6.202281e+00 9.916836e+01 0 9.916836e+01 6.385410e-10 7.092278e+01 
3.971479e-01 3.370256e+00 3.370256e+00 6.072422e+00 1.061061e+02 0 1.061061e+02 6.385410e-10 7.092278e+01 
4.257793e-01 2.493301e+00 2.493301e+00 5.934012e+00 1.147785e+02 0 1.147785e+02 6.385410e-10 7.092278e+01 
4.539905e-01 3.364901e+00 3.364901e+00 5.788848e+00 1.213376e+02 0 1.213376e+02 6.385410e-10 7.092278e+01 
4.817537e-01 2.498781e+00 2.498781e+00 5.636286e+00 1.299613e+02 0 1.299613e+02 6.385410e-10 7.092278e+01 
5.090414e-01 3.359174e+00 3.359174e+00 5.478110e+00 1.361066e+02 0 1.361066e+02 6.385410e-10 7.092278e+01 
5.358268e-01 2.504560e+00 2.504560e+00 5.313797e+00 1.446549e+02 0 1.446549e+02 6.385410e-10 7.092278e+01 
5.620834e-01 3.353203e+00 3.353203e+00 5.145107e+00 1.503543e+02 0 1.503543e+02 6.385410e-10 7.092278e+01 
5.877853e-01 2.510512e+00 2.510512e+00 4.971632e+00 1.587989e+02 0 1.587989e+02 6.385410e-10 7.092278e+01 
6.129071e-01 3.347112e+00 3.347112e+00 4.795094e+00 1.640230e+02 0 1.640230e+02 6.385410e-10 7.092278e+01 
6.374240e-01 2.516512e+00 2.516512e+00 4.615187e+00 1.723345e+02 0 1.723345e+02 6.385410e-10 7.092278e+01 
6.613119e-01 3.341025e+00 3.341025e+00 4.433588e+00 1.770563e+02 0 1.770563e+02 6.385410e-10 7.092278e+01 
6.845471e-01 2.522438e+00 2.522438e+00 4.250084e+00 1.852047e+02 0 1.852047e+02 6.385410e-10 7.092278e+01 
7.071068e-01 3.335061e+00 3.335061e+00 4.066292e+00 1.893996e+02 0 1.893996e+02 6.385410e-10 7.092278e+01 
7.289686e-01 2.528171e+00 2.528171e+00 3.882082e+00 1.973550e+02 0 1.973550e+02 6.385410e-10 7.092278e+01 
7.501111e-01 3.329338e+00 3.329338e+00 3.698999e+00 2.010011e+02 0 2.010011e+02 6.385410e-10 7.092278e+01 
7.705132e-01 2.533586e+00 2.533586e+00 3.516983e+00 2.087332e+02 0 2.087332e+02 6.385410e-10 7.092278e+01 
7.901550e-01 3.323976e+00 3.323976e+00 3.337500e+00 2.118123e+02 0 2.118123e+02 6.385410e-10 7.092278e+01 
8.090170e-01 2.538536e+00 2.538536e+00 3.160546e+00 2.192912e+02 0 2.192912e+02 6.385410e-10 7.092278e+01 
8.270806e-01 3.319077e+00 3.319077e+00 2.987498e+00 2.218037e+02 0 2.218037e+02 6.385410e-10 7.092278e+01 
8.443279e-01 2.542633e+00 2.542633e+00 2.818392e+00 2.290342e+02 0 2.290342e+02 6.385410e-10 7.092278e+01 
8.607420e-01 3.313927e+00 3.313927e+00 2.654511e+00 2.311644e+02 0 2.311644e+02 6.385410e-10 7.092278e+01 
8.763067e-01 2.542951e+00 2.542951e+00 2.495919e+00 2.385243e+02 0 2.385243e+02 6.385410e-10 7.092278e+01 
8.910065e-01 3.299908e+00 3.299908e+00 2.343796e+00 2.413850e+02 0 2.413850e+02 6.385410e-10 7.092278e+01 
9.048271e-01 2.522615e+00 2.522615e+00 2.198227e+00 2.506235e+02 0 2.506235e+02 6.385410e-10 7.092278e+01 
9.177546e-01 3.236226e+00 3.236226e+00 2.060288e+00 2.567770e+02 0 2.567770e+02 6.385410e-10 7.092278e+01 
9.297765e-01 2.430298e+00 2.430298e+00 1.930082e+00 2.707986e+02 0 2.707986e+02 6.385410e-10 7.092278e+01 
9.408808e-01 3.030296e+00 3.030296e+00 1.808579e+00 2.814854e+02 0 2.814854e+02 6.385410e-10 7.092278e+01 
9.510565e-01 2.188033e+00 2.188033e+00 1.695893e+00 3.004883e+02 0 3.004883e+02 6.385410e-10 7.092278e+01 
9.602937e-01 2.588445e+00 2.588445e+00 1.592864e+00 3.122505e+02 0 3.122505e+02 6.385410e-10 7.092278e+01 
9.685832e-01 1.754778e+00 1.754778e+00 1.499590e+00 3.317103e+02 0 3.317103e+02 6.385410e-10 7.092278e+01 
9.759168e-01 1.914677e+00 1.914677e+00 1.416742e+00 3.391252e+02 0 3.391252e+02 6.385410e-10 7.092278e+01 
9.822873e-01 1.184342e+00 1.184342e+00 1.344358e+00 3.542535e+02 0 3.542535e+02 6.385410e-10 7.092278e+01 
9.876883e-01 1.142014e+00 1.142014e+00 1.282919e+00 3.550152e+02 0 3.550152e+02 6.385410e-10 7.092278e+01 
9.921147e-01 6.118507e-01 6.118507e-01 1.232386e+00 3.651120e+02 0 3.651120e+02 6.385410e-10 7.092278e+01 
9.955620e-01 4.710394e-01 4.710394e-01 1.193071e+00 3.604872e+02 0 3.604872e+02 6.385410e-10 7.092278e+01 
9.980267e-01 1.915820e-01 1.915820e-01 1.164882e+00 3.686917e+02 0 3.686917e+02 6.385410e-10 7.092278e+01 
9.995066e-01 8.506495e-02 8.506495e-02 1.148004e+00 3.594924e+02 0 3.594924e+02 6.385410e-10 7.092278e+01 
1 3.745107e-02 3.745107e-02 1.142355e+00 3.821818e+02 0 3.821818e+02 6.385410e-10 7.092278e+01 
ZONE T="0.002", I=101
-1 4.000304e-02 4.000304e-02 1.109392e+00 -3.357140e+02 0 -3.357140e+02 -1.472337e-09 6.736794e+01 
-9.995066e-01 7.968991e-02 7.968991e-02 1.114876e+00 -2.949278e+02 0 -2.949278e+02 -1.472337e-09 6.736794e+01 
-9.980267e-01 1.709036e-01 1.709036e-01 1.131272e+00 -3.116309e+02 0 -3.116309e+02 -1.472337e-09 6.736794e+01 
-9.955620e-01 3.937983e-01 3.937983e-01 1.158642e+00 -2.981946e+02 0 -2.981946e+02 -1.472337e-09 6.736794e+01 
-9.921147e-01 5.313113e-01 5.313113e-01 1.196833e+00 -3.089435e+02 0 -3.089435e+02 -1.472337e-09 6.736794e+01 
-9.876883e-01 9.434272e-01 9.434272e-01 1.245909e+00 -2.969522e+02 0 -2.969522e+02 -1.472337e-09 6.736794e+01 
-9.822873e-01 1.030814e+00 1.030814e+00 1.305611e+00 -3.043220e+02 0 -3.043220e+02 -1.472337e-09 6.736794e+01 
-9.759168e-01 1.594593e+00 1.594593e+00 1.375952e+00 -2.910942e+02 0 -2.910942e+02 -1.472337e-09 6.736794e+01 
-9.685832e-01 1.552775e+00 1.552775e+00 1.456529e+00 -2.950298e+02 0 -2.950298e+02 -1.472337e-09 6.736794e+01 
-9.602937e-01 2.205298e+00 2.205298e+00 1.547273e+00 -2.798140e+02 0 -2.798140e+02 -1.472337e-09 6.736794e+01 
-9.510565e-01 1.993976e+00 1.993976e+00 1.647617e+00 -2.806559e+02 0 -2.806559e+02 -1.472337e-09 6.736794e+01 
-9.408808e-01 2.672477e+00 2.672477e+00 1.757415e+00 -2.643231e+02 0 -2.643231e+02 -1.472337e-09 6.736794e+01 
-9.297765e-01 2.297477e+00 2.297477e+00 1.875938e+00 -2.634545e+02 0 -2.634545e+02 -1.472337e-09 6.736794e+01 
-9.177546e-01 2.961327e+00 2.961327e+00 2.002991e+00 -2.477771e+02 0 -2.477771e+02 -1.472337e-09 6.736794e+01 
-9.048271e-01 2.463444e+00 2.463444e+00 2.137712e+00 -2.469774e+02 0 -2.469774e+02 -1.472337e-09 6.736794e+01 
-8.910065e-01 3.101677e+00 3.101677e+00 2.279893e+00 -2.332327e+02 0 -2.332327e+02 -1.472337e-09 6.736794e+01 
-8.763067e-01 2.532086e+00 2.532086e+00 2.428566e+00 -2.334504e+02 0 -2.334504e+02 -1.472337e-09 6.736794e+01 
-8.607420e-01 3.153863e+00 3.153863e+00 2.583534e+00 -2.215644e+02 0 -2.215644e+02 -1.472337e-09 6.736794e+01 
-8.443279e-01 2.551161e+00 2.551161e+00 2.743739e+00 -2.225131e+02 0 -2.225131e+02 -1.472337e-09 6.736794e+01 
-8.270806e-01 3.169617e+00 3.169617e+00 2.909000e+00 -2.115890e+02 0 -2.115890e+02 -1.472337e-09 6.736794e+01 
-8.090170e-01 2.552410e+00 2.552410e+00 3.078178e+00 -2.125081e+02 0 -2.125081e+02 -1.472337e-09 6.736794e+01 
-7.901550e-01 3.175591e+00 3.175591e+00 3.251114e+00 -2.018144e+02 0 -2.018144e+02 -1.472337e-09 6.736794e+01 
-7.705132e-01 2.549105e+00 2.549105e+00 3.426587e+00 -2.022258e+02 0 -2.022258e+02 -1.472337e-09 6.736794e+01 
-7.501111e-01 3.180212e+00 3.180212e+00 3.604469e+00 -1.914878e+02 0 -1.914878e+02 -1.472337e-09 6.736794e+01 
-7.289686e-01 2.544788e+00 2.544788e+00 3.783467e+00 -1.912530e+02 0 -1.912530e+02 -1.472337e-09 6.736794e+01 
-7.071068e-01 3.185006e+00 3.185006e+00 3.963493e+00 -1.804348e+02 0 -1.804348e+02 -1.472337e-09 6.736794e+01 
-6.845471e-01 2.540118e+00 2.540118e+00 4.143189e+00 -1.795443e+02 0 -1.795443e+02 -1.472337e-09 6.736794e+01 
-6.613119e-01 3.190041e+00 3.190041e+00 4.322523e+00 -1.686709e+02 0 -1.686709e+02 -1.472337e-09 6.736794e+01 
-6.374240e-01 2.535253e+00 2.535253e+00 4.500081e+00 -1.671362e+02 0 -1.671362e+02 -1.472337e-09 6.736794e+01 
-6.129071e-01 3.195223e+00 3.195223e+00 4.675897e+00 -1.562450e+02 0 -1.562450e+02 -1.472337e-09 6.736794e+01 
-5.877853e-01 2.530300e+00 2.530300e+00 4.848513e+00 -1.540773e+02 0 -1.540773e+02 -1.472337e-09 6.736794e+01 
-5.620834e-01 3.200448e+00 3.200448e+00 5.018043e+00 -1.432108e+02 0 -1.432108e+02 -1.472337e-09 6.736794e+01 
-5.358268e-01 2.525360e+00 2.525360e+00 5.182991e+00 -1.404190e+02 0 -1.404190e+02 -1.472337e-09 6.736794e+01 
-5.090414e-01 3.205606e+00 3.205606e+00 5.343562e+00 -1.296239e+02 0 -1.296239e+02 -1.472337e-09 6.736794e+01 
-4.817537e-01 2.520539e+00 2.520539e+00 5.498239e+00 -1.262156e+02 0 -1.262156e+02 -1.472337e-09 6.736794e+01 
-4.539905e-01 3.210587e+00 3.210587e+00 5.647322e+00 -1.155410e+02 0 -1.155410e+02 -1.472337e-09 6.736794e+01 
-4.257793e-01 2.515942e+00 2.515942e+00 5.789284e+00 -1.115231e+02 0 -1.115231e+02 -1.472337e-09 6.736794e+01 
-3.971479e-01 3.215276e+00 3.215276e+00 5.924531e+00 -1.010200e+02 0 -1.010200e+02 -1.472337e-09 6.736794e+01 
-3.681246e-01 2.511679e+00 2.511679e+00 6.051535e+00 -9.639956e+01 0 -9.639956e+01 -1.472337e-09 6.736794e+01 
-3.387379e-01 3.219561e+00 3.219561e+00 6.170815e+00 -8.611934e+01 0 -8.611934e+01 -1.472337e-09 6.736794e+01 
-3.090170e-01 2.507854e+00 2.507854e+00 6.280856e+00 -8.090446e+01 0 -8.090446e+01 -1.472337e-09 6.736794e+01 
-2.789911e-01 3.223331e+00 3.223331e+00 6.382290e+00 -7.089769e+01 0 -7.089769e+01 -1.472337e-09 6.736794e+01 
-2.486899e-01 2.504567e+00 2.504567e+00 6.473628e+00 -6.509837e+01 0 -6.509837e+01 -1.472337e-09 6.736794e+01 
-2.181432e-01 3.226485e+00 3.226485e+00 6.555618e+00 -5.541383e+01 0 -5.541383e+01 -1.472337e-09 6.736794e+01 
-1.873813e-01 2.501908e+00 2.501908e+00 6.626810e+00 -4.904272e+01 0 -4.904272e+01 -1.472337e-09 6.736794e+01 
-1.564345e-01 3.228935e+00 3.228935e+00 6.688066e+00 -3.972640e+01 0 -3.972640e+01 -1.472337e-09 6.736794e+01 
-1.253332e-01 2.499951e+00 2.499951e+00 6.737986e+00 -3.279950e+01 0 -3.279950e+01 -1.472337e-09 6.736794e+01 
-9.410831e-02 3.230610e+00 3.230610e+00 6.777542e+00 -2.389382e+01 0 -2.389382e+01 -1.472337e-09 6.736794e+01 
-6.279052e-02 2.498753e+00 2.498753e+00 6.805401e+00 -1.643108e+01 0 -1.643108e+01 -1.472337e-09 6.736794e+01 
-3.141076e-02 3.231460e+00 3.231460e+00 6.822636e+00 -7.974264e+00 0 -7.974264e+00 -1.472337e-09 6.736794e+01 
-6.123234e-17 2.498350e+00 2.498350e+00 6.827991e+00 -6.255119e-08 0 -6.255119e-08 -1.472337e-09 6.736794e+01 
3.141076e-02 3.231460e+00 3.231460e+00 6.822636e+00 7.974264e+00 0 7.974264e+00 -1.472337e-09 6.736794e+01 
6.279052e-02 2.498753e+00 2.498753e+00 6.805401e+00 1.643108e+01 0 1.643108e+01 -1.472337e-09 6.736794e+01 
9.410831e-02 3.230610e+00 3.230610e+00 6.777542e+00 2.389382e+01 0 2.389382e+01 -1.472337e-09 6.736794e+01 
1.253332e-01 2.499951e+00 2.499951e+00 6.737986e+00 3.279950e+01 0 3.279950e+01 -1.472337e-09 6.736794e+01 
1.564345e-01 3.228935e+00 3.228935e+00 6.688066e+00 3.972640e+01 0 3.972640e+01 -1.472337e-09 6.736794e+01 
1.873813e-01 2.501908e+00 2.501908e+00 6.626810e+00 4.904272e+01 0 4.904272e+01 -1.472337e-09 6.736794e+01 
2.181432e-01 3.226485e+00 3.226485e+00 6.555618e+00 5.541383e+01 0 5.541383e+01 -1.472337e-09 6.736794e+01 
2.486899e-01 2.504567e+00 2.504567e+00 6.473628e+00 6.509837e+01 0 6.509837e+01 -1.472337e-09 6.736794e+01 
2.789911e-01 3.223331e+00 3.223331e+00 6.382290e+00 7.089769e+01 0 7.089769e+01 -1.472337e-09 6.736794e+01 
3.090170e-01 2.507854e+00 2.507854e+00 6.280856e+00 8.090446e+01 0 8.090446e+01 -1.472337e-09 6.736794e+01 
3.387379e-01 3.219561e+00 3.219561e+00 6.170815e+00 8.611934e+01 0 8.611934e+01 -1.472337e-09 6.736794e+01 
3.681246e-01 2.511679e+00 2.511679e+00 6.051535e+00 9.639956e+01 0 9.639956e+01 -1.472337e-09 6.736794e+01 
3.971479e-01 3.215276e+00 3.215276e+00 5.924531e+00 1.010200e+02 0 1.010200e+02 -1.472337e-09 6.736794e+01 
4.257793e-01 2.515942e+00 2.515942e+00 5.789284e+00 1.115231e+02 0 1.115231e+02 -1.472337e-09 6.736794e+01 
4.539905e-01 3.210587e+00 3.210587e+00 5.647322e+00 1.155410e+02 0 1.155410e+02 -1.472337e-09 6.736794e+01 
4.817537e-01 2.520539e+00 2.520539e+00 5.498239e+00 1.262156e+02 0 1.262156e+02 -1.472337e-09 6.736794e+01 
5.090414e-01 3.205606e+00 3.205606e+00 5.343562e+00 1.296239e+02 0 1.296239e+02 -1.472337e-09 6.736794e+01 
5.358268e-01 2.525360e+00 2.525360e+00 5.182991e+00 1.404190e+02 0 1.404190e+02 -1.472337e-09 6.736794e+01 
5.620834e-01 3.200448e+00 3.200448e+00 5.018043e+00 1.432108e+02 0 1.432108e+02 -1.472337e-09 6.736794e+01 
5.877853e-01 2.530300e+00 2.530300e+00 4.848513e+00 1.540773e+02 0 1.540773e+02 -1.472337e-09 6.736794e+01 
6.129071e-01 3.195223e+00 3.195223e+00 4.675897e+00 1.562450e+02 0 1.562450e+02 -1.472337e-09 6.736794e+01 
6.374240e-01 2.535253e+00 2.535253e+00 4.500081e+00 1.671362e+02 0 1.671362e+02 -1.472337e-09 6.736794e+01 
6.613119e-01 3.190041e+00 3.190041e+00 4.322523e+00 1.686709e+02 0 1.686709e+02 -1.472337e-09 6.736794e+01 
6.845471e-01 2.540118e+00 2.540118e+00 4.143189e+00 1.795443e+02 0 1.795443e+02 -1.472337e-09 6.736794e+01 
7.071068e-01 3.185006e+00 3.185006e+00 3.963493e+00 1.804348e+02 0 1.804348e+02 -1.472337e-09 6.736794e+01 
7.289686e-01 2.544788e+00 2.544788e+00 3.783467e+00 1.912530e+02 0 1.912530e+02 -1.472337e-09 6.736794e+01 
7.501111e-01 3.180212e+00 3.180212e+00 3.604469e+00 1.914878e+02 0 1.914878e+02 -1.472337e-09 6.736794e+01 
7.705132e-01 2.549105e+00 2.549105e+00 3.426587e+00 2.022258e+02 0 2.022258e+02 -1.472337e-09 6.736794e+01 
7.901550e-01 3.175591e+00 3.175591e+00 3.251114e+00 2.018144e+02 0 2.018144e+02 -1.472337e-09 6.736794e+01 
8.090170e-01 2.552410e+00 2.552410e+00 3.078178e+00 2.125081e+02 0 2.125081e+02 -1.472337e-09 6.736794e+01 
8.270806e-01 3.169617e+00 3.169617e+00 2.909000e+00 2.115890e+02 0 2.115890e+02 -1.472337e-09 6.736794e+01 
8.443279e-01 2.551161e+00 2.551161e+00 2.743739e+00 2.225131e+02 0 2.225131e+02 -1.472337e-09 6.736794e+01 
8.607420e-01 3.153863e+00 3.153863e+00 2.583534e+00 2.215644e+02 0 2.215644e+02 -1.472337e-09 6.736794e+01 
8.763067e-01 2.532086e+00 2.532086e+00 2.428566e+00 2.334504e+02 0 2.334504e+02 -1.472337e-09 6.736794e+01 
8.910065e-01 3.101677e+00 3.101677e+00 2.279893e+00 2.332327e+02 0 2.332327e+02 -1.472337e-09 6.736794e+01 
9.048271e-01 2.463444e+00 2.463444e+00 2.137712e+00 2.469774e+02 0 2.469774e+02 -1.472337e-09 6.736794e+01 
9.177546e-01 2.961327e+00 2.961327e+00 2.002991e+00 2.477771e+02 0 2.477771e+02 -1.472337e-09 6.736794e+01 
9.297765e-01 2.297477e+00 2.297477e+00 1.875938e+00 2.634545e+02 0 2.634545e+02 -1.472337e-09 6.736794e+01 
9.408808e-01 2.672477e+00 2.672477e+00 1.757415e+00 2.643231e+02 0 2.643231e+02 -1.472337e-09 6.736794e+01 
9.510565e-01 1.993976e+00 1.993976e+00 1.647617e+00 2.806559e+02 0 2.806559e+02 -1.472337e-09 6.736794e+01 
9.602937e-01 2.205298e+00 2.205298e+00 1.547273e+00 2.798140e+02 0 2.798140e+02 -1.472337e-09 6.736794e+01 
9.685832e-01 1.552775e+00 1.552775e+00 1.456529e+00 2.950298e+02 0 2.950298e+02 -1.472337e-09 6.736794e+01 
9.759168e-01 1.594593e+00 1.594593e+00 1.375952e+00 2.910942e+02 0 2.910942e+02 -1.472337e-09 6.736794e+01 
9.822873e-01 1.030814e+00 1.030814e+00 1.305611e+00 3.043220e+02 0 3.043220e+02 -1.472337e-09 6.736794e+01 
9.876883e-01 9.434272e-01 9.434272e-01 1.245909e+00 2.969522e+02 0 2.969522e+02 -1.472337e-09 6.736794e+01 
9.921147e-01 5.313113e-01 5.313113e-01 1.196833e+00 3.089435e+02 0 3.089435e+02 -1.472337e-09 6.736794e+01 
9.955620e-01 3.937983e-01 3.937983e-01 1.158642e+00 2.981946e+02 0 2.981946e+02 -1.472337e-09 6.736794e+01 
9.980267e-01 1.709036e-01 1.709036e-01 1.131272e+00 3.116309e+02 0 3.116309e+02 -1.472337e-09 6.736794e+01 
9.995066e-01 7.968991e-02 7.968991e-02 1.114876e+00 2.949278e+02 0 2.949278e+02 -1.472337e-09 6.736794e+01 
1 4.000304e-02 4.000304e-02 1.109392e+00 3.357140e+02 0 3.357140e+02 -1.472337e-09 6.736794e+01 
ZONE T="0.003", I=101
-1 4.238389e-02 4.238389e-02 1.080488e+00 -3.014597e+02 0 -3.014597e+02 1.278903e-09 6.415781e+01 
-9.995066e-01 7.771991e-02 7.771991e-02 1.085826e+00 -2.679452e+02 0 -2.679452e+02 1.278903e-09 6.415781e+01 
-9.980267e-01 1.639789e-01 1.639789e-01 1.101801e+00 -2.816804e+02 0 -2.816804e+02 1.278903e-09 6.415781e+01 
-9.955620e-01 3.537171e-01 3.537171e-01 1.128450e+00 -2.707270e+02 0 -2.707270e+02 1.278903e-09 6.415781e+01 
-9.921147e-01 4.994803e-01 4.994803e-01 1.165656e+00 -2.796920e+02 0 -2.796920e+02 1.278903e-09 6.415781e+01 
-9.876883e-01 8.384424e-01 8.384424e-01 1.213448e+00 -2.702281e+02 0 -2.702281e+02 1.278903e-09 6.415781e+01 
-9.822873e-01 9.680137e-01 9.680137e-01 1.271617e+00 -2.767813e+02 0 -2.767813e+02 1.278903e-09 6.415781e+01 
-9.759168e-01 1.419409e+00 1.419409e+00 1.340135e+00 -2.667878e+02 0 -2.667878e+02 1.278903e-09 6.415781e+01 
-9.685832e-01 1.466417e+00 1.466417e+00 1.418672e+00 -2.710568e+02 0 -2.710568e+02 1.278903e-09 6.415781e+01 
-9.602937e-01 1.978338e+00 1.978338e+00 1.507113e+00 -2.598144e+02 0 -2.598144e+02 1.278903e-09 6.415781e+01 
-9.510565e-01 1.903371e+00 1.903371e+00 1.604980e+00 -2.619127e+02 0 -2.619127e+02 1.278903e-09 6.415781e+01 
-9.408808e-01 2.427948e+00 2.427948e+00 1.712073e+00 -2.496219e+02 0 -2.496219e+02 1.278903e-09 6.415781e+01 
-9.297765e-01 2.225220e+00 2.225220e+00 1.827766e+00 -2.501217e+02 0 -2.501217e+02 1.278903e-09 6.415781e+01 
-9.177546e-01 2.732265e+00 2.732265e+00 1.951794e+00 -2.375950e+02 0 -2.375950e+02 1.278903e-09 6.415781e+01 
-9.048271e-01 2.423402e+00 2.423402e+00 2.083405e+00 -2.373911e+02 0 -2.373911e+02 1.278903e-09 6.415781e+01 
-8.910065e-01 2.903813e+00 2.903813e+00 2.222300e+00 -2.254831e+02 0 -2.254831e+02 1.278903e-09 6.415781e+01 
-8.763067e-01 2.523157e+00 2.523157e+00 2.367630e+00 -2.253126e+02 0 -2.253126e+02 1.278903e-09 6.415781e+01 
-8.607420e-01 2.982955e+00 2.982955e+00 2.519085e+00 -2.143886e+02 0 -2.143886e+02 1.278903e-09 6.415781e+01 
-8.443279e-01 2.562334e+00 2.562334e+00 2.675740e+00 -2.144612e+02 0 -2.144612e+02 1.278903e-09 6.415781e+01 
-8.270806e-01 3.012748e+00 3.012748e+00 2.837291e+00 -2.043119e+02 0 -2.043119e+02 1.278903e-09 6.415781e+01 
-8.090170e-01 2.572827e+00 2.572827e+00 3.002744e+00 -2.043862e+02 0 -2.043862e+02 1.278903e-09 6.415781e+01 
-7.901550e-01 3.022865e+00 3.022865e+00 3.171808e+00 -1.945779e+02 0 -1.945779e+02 1.278903e-09 6.415781e+01 
-7.705132e-01 2.573050e+00 2.573050e+00 3.343427e+00 -1.943199e+02 0 -1.943199e+02 1.278903e-09 6.415781e+01 
-7.501111e-01 3.027451e+00 3.027451e+00 3.517328e+00 -1.845437e+02 0 -1.845437e+02 1.278903e-09 6.415781e+01 
-7.289686e-01 2.570477e+00 2.570477e+00 3.692399e+00 -1.837614e+02 0 -1.837614e+02 1.278903e-09 6.415781e+01 
-7.071068e-01 3.031115e+00 3.031115e+00 3.868394e+00 -1.739045e+02 0 -1.739045e+02 1.278903e-09 6.415781e+01 
-6.845471e-01 2.567244e+00 2.567244e+00 4.044153e+00 -1.725419e+02 0 -1.725419e+02 1.278903e-09 6.415781e+01 
-6.613119e-01 3.034817e+00 3.034817e+00 4.219468e+00 -1.625984e+02 0 -1.625984e+02 1.278903e-09 6.415781e+01 
-6.374240e-01 2.563818e+00 2.563818e+00 4.393141e+00 -1.606547e+02 0 -1.606547e+02 1.278903e-09 6.415781e+01 
-6.129071e-01 3.038628e+00 3.038628e+00 4.565015e+00 -1.506534e+02 0 -1.506534e+02 1.278903e-09 6.415781e+01 
-5.877853e-01 2.560319e+00 2.560319e+00 4.733860e+00 -1.481381e+02 0 -1.481381e+02 1.278903e-09 6.415781e+01 
-5.620834e-01 3.042481e+00 3.042481e+00 4.899583e+00 -1.381173e+02 0 -1.381173e+02 1.278903e-09 6.415781e+01 
-5.358268e-01 2.556825e+00 2.556825e+00 5.060935e+00 -1.350396e+02 0 -1.350396e+02 1.278903e-09 6.415781e+01 
-5.090414e-01 3.046296e+00 3.046296e+00 5.217896e+00 -1.250424e+02 0 -1.250424e+02 1.278903e-09 6.415781e+01 
-4.817537e-01 2.553413e+00 2.553413e+00 5.369209e+00 -1.214101e+02 0 -1.214101e+02 1.278903e-09 6.415781e+01 
-4.539905e-01 3.049989e+00 3.049989e+00 5.514933e+00 -1.114824e+02 0 -1.114824e+02 1.278903e-09 6.415781e+01 
-4.257793e-01 2.550158e+00 2.550158e+00 5.653817e+00 -1.073027e+02 0 -1.073027e+02 1.278903e-09 6.415781e+01 
-3.971479e-01 3.053474e+00 3.053474e+00 5.786008e+00 -9.749245e+01 0 -9.749245e+01 1.278903e-09 6.415781e+01 
-3.681246e-01 2.547136e+00 2.547136e+00 5.910269e+00 -9.277247e+01 0 -9.277247e+01 1.278903e-09 6.415781e+01 
-3.387379e-01 3.056665e+00 3.056665e+00 6.026844e+00 -8.312854e+01 0 -8.312854e+01 1.278903e-09 6.415781e+01 
-3.090170e-01 2.544424e+00 2.544424e+00 6.134521e+00 -7.787646e+01 0 -7.787646e+01 1.278903e-09 6.415781e+01 
-2.789911e-01 3.059478e+00 3.059478e+00 6.233642e+00 -6.844752e+01 0 -6.844752e+01 1.278903e-09 6.415781e+01 
-2.486899e-01 2.542092e+00 2.542092e+00 6.323032e+00 -6.267324e+01 0 -6.267324e+01 1.278903e-09 6.415781e+01 
-2.181432e-01 3.061834e+00 3.061834e+00 6.403138e+00 -5.350667e+01 0 -5.350667e+01 1.278903e-09 6.415781e+01 
-1.873813e-01 2.540204e+00 2.540204e+00 6.472830e+00 -4.722270e+01 0 -4.722270e+01 1.278903e-09 6.415781e+01 
-1.564345e-01 3.063668e+00 3.063668e+00 6.532657e+00 -3.836357e+01 0 -3.836357e+01 1.278903e-09 6.415781e+01 
-1.253332e-01 2.538814e+00 2.538814e+00 6.581550e+00 -3.158576e+01 0 -3.158576e+01 1.278903e-09 6.415781e+01 
-9.410831e-02 3.064922e+00 3.064922e+00 6.620156e+00 -2.307595e+01 0 -2.307595e+01 1.278903e-09 6.415781e+01 
-6.279052e-02 2.537964e+00 2.537964e+00 6.647475e+00 -1.582412e+01 0 -1.582412e+01 1.278903e-09 6.415781e+01 
-3.141076e-02 3.065559e+00 3.065559e+00 6.664253e+00 -7.701620e+00 0 -7.701620e+00 1.278903e-09 6.415781e+01 
-6.123234e-17 2.537677e+00 2.537677e+00 6.669567e+00 -5.303513e-08 0 -5.303513e-08 1.278903e-09 6.415781e+01 
3.141076e-02 3.065559e+00 3.065559e+00 6.664253e+00 7.701620e+00 0 7.701620e+00 1.278903e-09 6.415781e+01 
6.279052e-02 2.537964e+00 2.537964e+00 6.647475e+00 1.582412e+01 0 1.582412e+01 1.278903e-09 6.415781e+01 
9.410831e-02 3.064922e+00 3.064922e+00 6.620156e+00 2.307595e+01 0 2.307595e+01 1.278903e-09 6.415781e+01 
1.253332e-01 2.538814e+00 2.538814e+00 6.581550e+00 3.158576e+01 0 3.158576e+01 1.278903e-09 6.415781e+01 
1.564345e-01 3.063668e+00 3.063668e+00 6.532657e+00 3.836357e+01 0 3.836357e+01 1.278903e-09 6.415781e+01 
1.873813e-01 2.540204e+00 2.540204e+00 6.472830e+00 4.722270e+01 0 4.722270e+01 1.278903e-09 6.415781e+01 
2.181432e-01 3.061834e+00 3.061834e+00 6.403138e+00 5.350667e+01 0 5.350667e+01 1.278903e-09 6.415781e+01 
2.486899e-01 2.542092e+00 2.542092e+00 6.323032e+00 6.267324e+01 0 6.267324e+01 1.278903e-09 6.415781e+01 
2.789911e-01 3.059478e+00 3.059478e+00 6.233642e+00 6.844752e+01 0 6.844752e+01 1.278903e-09 6.415781e+01 
3.090170e-01 2.544424e+00 2.544424e+00 6.134521e+00 7.787646e+01 0 7.787646e+01 1.278903e-09 6.415781e+01 
3.387379e-01 3.056665e+00 3.056665e+00 6.026844e+00 8.312854e+01 0 8.312854e+01 1.278903e-09 6.415781e+01 
3.681246e-01 2.547136e+00 2.547136e+00 5.910269e+00 9.277247e+01 0 9.277247e+01 1.278903e-09 6.415781e+01 
3.971479e-01 3.053474e+00 3.053474e+00 5.786008e+00 9.749245e+01 0 9.749245e+01 1.278903e-09 6.415781e+01 
4.257793e-01 2.550158e+00 2.550158e+00 5.653817e+00 1.073027e+02 0 1.073027e+02 1.278903e-09 6.415781e+01 
4.539905e-01 3.049989e+00 3.049989e+00 5.514933e+00 1.114824e+02 0 1.114824e+02 1.278903e-09 6.415781e+01 
4.817537e-01 2.553413e+00 2.553413e+00 5.369209e+00 1.214101e+02 0 1.214101e+02 1.278903e-09 6.415781e+01 
5.090414e-01 3.046296e+00 3.046296e+00 5.217896e+00 1.250424e+02 0 1.250424e+02 1.278903e-09 6.415781e+01 
5.358268e-01 2.556825e+00 2.556825e+00 5.060935e+00 1.350396e+02 0 1.350396e+02 1.278903e-09 6.415781e+01 
5.620834e-01 3.042481e+00 3.042481e+00 4.899583e+00 1.381173e+02 0 1.381173e+02 1.278903e-09 6.415781e+01 
5.877853e-01 2.560319e+00 2.560319e+00 4.733860e+00 1.481381e+02 0 1.481381e+02 1.278903e-09 6.415781e+01 