TITLE = "2 species of PNP-Steric with high order term" 
VARIABLES = "X" "Conc1" "Conc2" "phi" "Current_x""I_ext" "I_PNP" "CURRENT" "ENERGY" "
ZONE T="0.001", I=101
-1 1.267569e-01 2.626160e-01 3.919061e-04 1.018390e+02 0 -9.081819e+02 -1.260845e+00 1.331555e+01 
-9.995066e-01 2.636188e-01 2.400384e-01 4.266271e-04 -3.665594e+01 0 -3.794711e+02 -1.260845e+00 1.331555e+01 
-9.980267e-01 3.510370e-01 3.321580e-01 3.543802e-04 2.011503e+01 0 8.268134e+01 -1.260845e+00 1.331555e+01 
-9.955620e-01 4.780377e-01 4.654114e-01 4.712699e-04 -2.319053e+01 0 7.782384e+00 -1.260845e+00 1.331555e+01 
-9.921147e-01 6.351304e-01 6.090592e-01 3.641386e-04 1.520603e+01 0 -6.595299e+01 -1.260845e+00 1.331555e+01 
-9.876883e-01 7.884982e-01 7.949747e-01 5.223159e-04 -1.582708e+01 0 1.257804e+02 -1.260845e+00 1.331555e+01 
-9.822873e-01 9.781709e-01 9.490034e-01 3.977160e-04 1.676689e+01 0 -1.718655e+02 -1.260845e+00 1.331555e+01 
-9.759168e-01 1.117139e+00 1.172902e+00 5.840812e-04 -7.726499e+00 0 2.386455e+02 -1.260845e+00 1.331555e+01 
-9.685832e-01 1.330516e+00 1.309868e+00 4.546846e-04 1.712128e+01 0 -2.842545e+02 -1.260845e+00 1.331555e+01 
-9.602937e-01 1.451570e+00 1.548507e+00 6.667286e-04 -1.420536e+01 0 3.330358e+02 -1.260845e+00 1.331555e+01 
-9.510565e-01 1.771838e+00 1.566479e+00 5.458720e-04 -1.072199e+01 0 -4.401286e+02 -1.260845e+00 1.331555e+01 
-9.408808e-01 1.891747e+00 1.783552e+00 7.503342e-04 -2.929404e+01 0 4.581326e+02 -1.260845e+00 1.331555e+01 
-9.297765e-01 2.048374e+00 1.934547e+00 5.684410e-04 4.240620e+01 0 -3.875035e+02 -1.260845e+00 1.331555e+01 
-9.177546e-01 1.662395e+00 2.646860e+00 7.578448e-04 2.214393e+01 0 5.241852e+02 -1.260845e+00 1.331555e+01 
-9.048271e-01 3.149052e+00 1.457974e+00 7.684309e-04 -9.289311e+01 0 -9.970689e+02 -1.260845e+00 1.331555e+01 
-8.910065e-01 1.835893e+00 2.986735e+00 7.277372e-04 7.944794e+01 0 1.529897e+03 -1.260845e+00 1.331555e+01 
-8.763067e-01 2.413691e+00 2.606288e+00 6.820608e-04 -2.539485e+00 0 -1.779422e+03 -1.260845e+00 1.331555e+01 
-8.607420e-01 3.444694e+00 1.816145e+00 9.457626e-04 -5.303644e+01 0 1.787562e+03 -1.260845e+00 1.331555e+01 
-8.443279e-01 1.457689e+00 4.006027e+00 5.002459e-04 6.213947e+01 0 -1.627279e+03 -1.260845e+00 1.331555e+01 
-8.270806e-01 4.364876e+00 1.267906e+00 1.038851e-03 -5.981554e+01 0 1.393173e+03 -1.260845e+00 1.331555e+01 
-8.090170e-01 1.179046e+00 4.558093e+00 3.893794e-04 5.276986e+01 0 -1.175599e+03 -1.260845e+00 1.331555e+01 
-7.901550e-01 4.683235e+00 1.136437e+00 1.061808e-03 -4.898322e+01 0 9.787820e+02 -1.260845e+00 1.331555e+01 
-7.705132e-01 1.114863e+00 4.747000e+00 2.905301e-04 4.348792e+01 0 -8.254646e+02 -1.260845e+00 1.331555e+01 
-7.501111e-01 4.791810e+00 1.109086e+00 1.058830e-03 -4.178352e+01 0 6.908046e+02 -1.260845e+00 1.331555e+01 
-7.289686e-01 1.103066e+00 4.812359e+00 1.920697e-04 3.817311e+01 0 -5.887488e+02 -1.260845e+00 1.331555e+01 
-7.071068e-01 4.829401e+00 1.106623e+00 1.045771e-03 -3.815173e+01 0 4.947047e+02 -1.260845e+00 1.331555e+01 
-6.845471e-01 1.104237e+00 4.834899e+00 9.325154e-05 3.591450e+01 0 -4.234210e+02 -1.260845e+00 1.331555e+01 
-6.613119e-01 4.841604e+00 1.110494e+00 1.028827e-03 -3.703093e+01 0 3.534874e+02 -1.260845e+00 1.331555e+01 
-6.374240e-01 1.109620e+00 4.840809e+00 -4.259826e-06 3.573423e+01 0 -3.002526e+02 -1.260845e+00 1.331555e+01 
-6.129071e-01 4.842494e+00 1.117599e+00 1.010052e-03 -3.760898e+01 0 2.449632e+02 -1.260845e+00 1.331555e+01 
-5.877853e-01 1.118640e+00 4.837682e+00 -9.830570e-05 3.694710e+01 0 -2.027860e+02 -1.260845e+00 1.331555e+01 
-5.620834e-01 4.835529e+00 1.128976e+00 9.896013e-04 -3.929607e+01 0 1.569874e+02 -1.260845e+00 1.331555e+01 
-5.358268e-01 1.133004e+00 4.826828e+00 -1.866638e-04 3.899514e+01 0 -1.221685e+02 -1.260845e+00 1.331555e+01 
-5.090414e-01 4.820657e+00 1.146763e+00 9.666622e-04 -4.151977e+01 0 8.318960e+01 -1.260845e+00 1.331555e+01 
-4.817537e-01 1.154894e+00 4.807595e+00 -2.671817e-04 4.125777e+01 0 -5.394344e+01 -1.260845e+00 1.331555e+01 
-4.539905e-01 4.796972e+00 1.173024e+00 9.399885e-04 -4.359821e+01 0 2.059660e+01 -1.260845e+00 1.331555e+01 
-4.257793e-01 1.185983e+00 4.779203e+00 -3.380090e-04 4.300920e+01 0 3.741296e+00 -1.260845e+00 1.331555e+01 
-3.971479e-01 4.764030e+00 1.208864e+00 9.084249e-04 -4.479873e+01 0 -3.181892e+01 -1.260845e+00 1.331555e+01 
-3.681246e-01 1.226614e+00 4.741751e+00 -3.979740e-04 4.357020e+01 0 5.138404e+01 -1.260845e+00 1.331555e+01 
-3.387379e-01 4.722560e+00 1.253771e+00 8.714135e-04 -4.455878e+01 0 -7.427340e+01 -1.260845e+00 1.331555e+01 
-3.090170e-01 1.275399e+00 4.696643e+00 -4.469040e-04 4.255142e+01 0 8.915026e+01 -1.260845e+00 1.331555e+01 
-2.789911e-01 4.674592e+00 1.305555e+00 8.292681e-04 -4.269783e+01 0 -1.070489e+02 -1.260845e+00 1.331555e+01 
-2.486899e-01 1.329495e+00 4.646438e+00 -4.856454e-04 3.998393e+01 0 1.175515e+02 -1.260845e+00 1.331555e+01 
-2.181432e-01 4.623050e+00 1.360935e+00 7.830710e-04 -3.943766e+01 0 -1.309374e+02 -1.260845e+00 1.331555e+01 
-1.873813e-01 1.385417e+00 4.594253e+00 -5.157459e-04 3.622981e+01 0 1.376498e+02 -1.260845e+00 1.331555e+01 
-1.564345e-01 4.571076e+00 1.416427e+00 7.343034e-04 -3.522909e+01 0 -1.472315e+02 -1.260845e+00 1.331555e+01 
-1.253332e-01 1.439855e+00 4.543116e+00 -5.390063e-04 3.176811e+01 0 1.508938e+02 -1.260845e+00 1.331555e+01 
-9.410831e-02 4.521473e+00 1.469020e+00 6.844597e-04 -3.053841e+01 0 -1.574695e+02 -1.260845e+00 1.331555e+01 
-6.279052e-02 1.490167e+00 4.495539e+00 -5.571274e-04 2.701492e+01 0 1.588386e+02 -1.260845e+00 1.331555e+01 
-3.141076e-02 4.476434e+00 1.516458e+00 6.348076e-04 -2.571679e+01 0 -1.631740e+02 -1.260845e+00 1.331555e+01 
-1.110223e-16 1.534469e+00 4.453390e+00 -5.715357e-04 2.224512e+01 0 1.629330e+02 -1.260845e+00 1.331555e+01 
3.141076e-02 4.437529e+00 1.557192e+00 5.863088e-04 -2.096646e+01 0 -1.656998e+02 -1.260845e+00 1.331555e+01 
6.279052e-02 1.571499e+00 4.417980e+00 -5.833518e-04 1.759125e+01 0 1.644274e+02 -1.260845e+00 1.331555e+01 
9.410831e-02 4.405856e+00 1.590185e+00 5.396396e-04 -1.636043e+01 0 -1.661949e+02 -1.260845e+00 1.331555e+01 
1.253332e-01 1.600384e+00 4.390240e+00 -5.934308e-04 1.307357e+01 0 1.643778e+02 -1.260845e+00 1.331555e+01 
1.564345e-01 4.382230e+00 1.614675e+00 4.952500e-04 -1.187555e+01 0 -1.656391e+02 -1.260845e+00 1.331555e+01 
1.873813e-01 1.620426e+00 4.370909e+00 -6.024263e-04 8.630990e+00 0 1.637105e+02 -1.260845e+00 1.331555e+01 
2.181432e-01 4.367362e+00 1.629978e+00 4.534260e-04 -7.419117e+00 0 -1.649301e+02 -1.260845e+00 1.331555e+01 
2.486899e-01 1.630915e+00 4.360702e+00 -6.108482e-04 4.141797e+00 0 1.633266e+02 -1.260845e+00 1.331555e+01 
2.789911e-01 4.361998e+00 1.635324e+00 4.143373e-04 -2.843886e+00 0 -1.650089e+02 -1.260845e+00 1.331555e+01 
3.090170e-01 1.630994e+00 4.360415e+00 -6.191042e-04 -5.666720e-01 0 1.642512e+02 -1.260845e+00 1.331555e+01 
3.387379e-01 4.367003e+00 1.629743e+00 3.780614e-04 2.046024e+00 0 -1.670403e+02 -1.260845e+00 1.331555e+01 
3.681246e-01 1.619575e+00 4.370975e+00 -6.275134e-04 -5.713995e+00 0 1.678554e+02 -1.260845e+00 1.331555e+01 
3.971479e-01 4.383341e+00 1.612035e+00 3.445726e-04 7.489361e+00 0 -1.726911e+02 -1.260845e+00 1.331555e+01 
4.257793e-01 1.595377e+00 4.393330e+00 -6.362772e-04 -1.155353e+01 0 1.762086e+02 -1.260845e+00 1.331555e+01 
4.539905e-01 4.411854e+00 1.580909e+00 3.136682e-04 1.373744e+01 0 -1.845800e+02 -1.260845e+00 1.331555e+01 
4.817537e-01 1.557237e+00 4.428050e+00 -6.453639e-04 -1.830934e+01 0 1.926472e+02 -1.260845e+00 1.331555e+01 
5.090414e-01 4.452613e+00 1.535546e+00 2.847780e-04 2.093666e+01 0 -2.069829e+02 -1.260845e+00 1.331555e+01 
5.358268e-01 1.505033e+00 4.474384e+00 -6.542460e-04 -2.597967e+01 0 2.226156e+02 -1.260845e+00 1.331555e+01 
5.620834e-01 4.503651e+00 1.476980e+00 2.566065e-04 2.884212e+01 0 -2.467752e+02 -1.260845e+00 1.331555e+01 
5.877853e-01 1.441508e+00 4.528689e+00 -6.615037e-04 -3.398664e+01 0 2.746256e+02 -1.260845e+00 1.331555e+01 
6.129071e-01 4.559211e+00 1.410185e+00 2.267826e-04 3.650512e+01 0 -3.142810e+02 -1.260845e+00 1.331555e+01 
6.374240e-01 1.374208e+00 4.582687e+00 -6.646861e-04 -4.108059e+01 0 3.608787e+02 -1.260845e+00 1.331555e+01 
6.613119e-01 4.608132e+00 1.345267e+00 1.921188e-04 4.261664e+01 0 -4.236610e+02 -1.260845e+00 1.331555e+01 
6.845471e-01 1.315442e+00 4.621849e+00 -6.610147e-04 -4.625764e+01 0 4.976724e+02 -1.260845e+00 1.331555e+01 
7.071068e-01 4.631519e+00 1.296385e+00 1.496976e-04 4.691843e+01 0 -5.939139e+02 -1.260845e+00 1.331555e+01 
7.289686e-01 1.281542e+00 4.620672e+00 -6.482839e-04 -5.030969e+01 0 7.078178e+02 -1.260845e+00 1.331555e+01 
7.501111e-01 4.592434e+00 1.284446e+00 9.710765e-05 5.139744e+01 0 -8.532685e+02 -1.260845e+00 1.331555e+01 
7.705132e-01 1.304366e+00 4.521372e+00 -6.233273e-04 -5.628693e+01 0 1.026266e+03 -1.260845e+00 1.331555e+01 
7.901550e-01 4.393261e+00 1.367602e+00 2.869389e-05 6.001465e+01 0 -1.241345e+03 -1.260845e+00 1.331555e+01 
8.090170e-01 1.503148e+00 4.148158e+00 -5.733685e-04 -6.830830e+01 0 1.482542e+03 -1.260845e+00 1.331555e+01 
8.270806e-01 3.700021e+00 1.806813e+00 -8.368090e-05 7.106686e+01 0 -1.720201e+03 -1.260845e+00 1.331555e+01 
8.443279e-01 2.384978e+00 2.929623e+00 -4.214894e-04 -4.215903e+01 0 1.840644e+03 -1.260845e+00 1.331555e+01 
8.607420e-01 1.967795e+00 3.184061e+00 -3.700819e-04 -4.952520e+01 0 -1.746817e+03 -1.260845e+00 1.331555e+01 
8.763067e-01 3.719466e+00 1.308115e+00 -1.798663e-04 1.077277e+02 0 1.319349e+03 -1.260845e+00 1.331555e+01 
8.910065e-01 1.241292e+00 3.583190e+00 -3.910107e-04 -8.173943e+01 0 -6.374659e+02 -1.260845e+00 1.331555e+01 
9.048271e-01 2.846318e+00 1.643377e+00 -3.333469e-04 4.500788e+00 0 2.191896e+02 -1.260845e+00 1.331555e+01 
9.177546e-01 2.013787e+00 2.171972e+00 -1.838149e-04 4.878894e+01 0 -1.914111e+02 -1.260845e+00 1.331555e+01 
9.297765e-01 1.927432e+00 1.957498e+00 -3.674386e-04 -2.783064e+01 0 3.246594e+02 -1.260845e+00 1.331555e+01 
9.408808e-01 1.657611e+00 1.921765e+00 -2.134380e-04 -1.029461e+01 0 -3.480759e+02 -1.260845e+00 1.331555e+01 
9.510565e-01 1.724381e+00 1.522354e+00 -3.261015e-04 -5.408348e+00 0 2.641659e+02 -1.260845e+00 1.331555e+01 
9.602937e-01 1.431583e+00 1.480483e+00 -1.617057e-04 1.569200e+01 0 -2.349822e+02 -1.260845e+00 1.331555e+01 
9.685832e-01 1.332876e+00 1.230308e+00 -2.948492e-04 -9.035382e-01 0 2.180239e+02 -1.260845e+00 1.331555e+01 
9.759168e-01 1.079976e+00 1.138674e+00 -1.496148e-04 9.690897e+00 0 -1.747426e+02 -1.260845e+00 1.331555e+01 
9.822873e-01 9.522215e-01 9.157060e-01 -2.789283e-04 -7.636355e+00 0 1.487594e+02 -1.260845e+00 1.331555e+01 
9.876883e-01 7.465125e-01 7.858201e-01 -1.476005e-04 6.287378e+00 0 -1.181721e+02 -1.260845e+00 1.331555e+01 
9.921147e-01 6.104728e-01 5.954668e-01 -2.609450e-04 -1.072321e+01 0 8.793760e+01 -1.260845e+00 1.331555e+01 
9.955620e-01 4.490243e-01 4.647881e-01 -1.524131e-04 7.002137e+00 0 -6.632842e+01 -1.260845e+00 1.331555e+01 
9.980267e-01 3.366950e-01 3.286791e-01 -2.394996e-04 -1.392209e+01 0 3.874672e+01 -1.260845e+00 1.331555e+01 
9.995066e-01 2.490346e-01 2.483754e-01 -1.702732e-04 1.272722e+01 0 -2.859630e+01 -1.260845e+00 1.331555e+01 
1 2.269737e-01 2.224375e-01 -1.973095e-04 -5.234966e+01 0 1.661194e+01 -1.260845e+00 1.331555e+01 
ZONE T="0.002", I=101
-1 1.238632e-01 2.617150e-01 2.910597e-04 3.578180e+01 0 -9.240095e+02 -1.009614e+00 1.332447e+01 
-9.995066e-01 2.485321e-01 2.333993e-01 3.272664e-04 -1.186022e+01 0 -3.301598e+02 -1.009614e+00 1.332447e+01 
-9.980267e-01 3.070544e-01 3.031427e-01 2.486813e-04 7.657838e+00 0 5.241940e+01 -1.009614e+00 1.332447e+01 
-9.955620e-01 4.078681e-01 3.942101e-01 3.696928e-04 -7.554167e+00 0 2.446688e+01 -1.009614e+00 1.332447e+01 
-9.921147e-01 5.146402e-01 5.152169e-01 2.518671e-04 5.432749e+00 0 -7.300271e+01 -1.009614e+00 1.332447e+01 
-9.876883e-01 6.545629e-01 6.395165e-01 4.150044e-04 -6.474856e+00 0 1.178545e+02 -1.009614e+00 1.332447e+01 
-9.822873e-01 7.814790e-01 7.854993e-01 2.767117e-04 4.057093e+00 0 -1.619839e+02 -1.009614e+00 1.332447e+01 
-9.759168e-01 9.415697e-01 9.186282e-01 4.679899e-04 -6.716557e+00 0 2.049462e+02 -1.009614e+00 1.332447e+01 
-9.685832e-01 1.073779e+00 1.074845e+00 3.182081e-04 2.201264e+00 0 -2.532871e+02 -1.009614e+00 1.332447e+01 
-9.602937e-01 1.247365e+00 1.201916e+00 5.264508e-04 -8.156499e+00 0 2.957276e+02 -1.009614e+00 1.332447e+01 
-9.510565e-01 1.375376e+00 1.361800e+00 3.671294e-04 7.802254e-01 0 -3.486741e+02 -1.009614e+00 1.332447e+01 
-9.408808e-01 1.550614e+00 1.481574e+00 5.761399e-04 -6.090038e+00 0 3.996136e+02 -1.009614e+00 1.332447e+01 
-9.297765e-01 1.636106e+00 1.672517e+00 4.017736e-04 8.527569e+00 0 -4.366840e+02 -1.009614e+00 1.332447e+01 
-9.177546e-01 1.773717e+00 1.814064e+00 6.085236e-04 3.127829e+00 0 5.151077e+02 -1.009614e+00 1.332447e+01 
-9.048271e-01 1.872575e+00 1.971882e+00 4.639328e-04 -9.718006e-01 0 -5.914673e+02 -1.009614e+00 1.332447e+01 
-8.910065e-01 2.258837e+00 1.843708e+00 6.989472e-04 -2.889940e+01 0 5.617890e+02 -1.009614e+00 1.332447e+01 
-8.763067e-01 2.143294e+00 2.183040e+00 4.426099e-04 2.527301e+01 0 -5.140993e+02 -1.009614e+00 1.332447e+01 
-8.607420e-01 1.856964e+00 2.707505e+00 5.802636e-04 2.057938e+01 0 6.781068e+02 -1.009614e+00 1.332447e+01 
-8.443279e-01 3.005155e+00 1.761725e+00 6.610383e-04 -5.170488e+01 0 -1.070620e+03 -1.009614e+00 1.332447e+01 
-8.270806e-01 2.254166e+00 2.670012e+00 5.567143e-04 3.495057e+01 0 1.434056e+03 -1.009614e+00 1.332447e+01 
-8.090170e-01 2.061064e+00 3.029919e+00 3.993154e-04 -4.960592e-01 0 -1.586592e+03 -1.009614e+00 1.332447e+01 
-7.901550e-01 3.724748e+00 1.570556e+00 8.013929e-04 -1.570571e+01 0 1.559128e+03 -1.009614e+00 1.332447e+01 
-7.705132e-01 1.293588e+00 4.175619e+00 1.712792e-04 1.762007e+01 0 -1.425727e+03 -1.009614e+00 1.332447e+01 
-7.501111e-01 4.468921e+00 1.149562e+00 8.744529e-04 -1.833545e+01 0 1.254177e+03 -1.009614e+00 1.332447e+01 
-7.289686e-01 1.069771e+00 4.649753e+00 2.676949e-05 1.609561e+01 0 -1.095248e+03 -1.009614e+00 1.332447e+01 
-7.071068e-01 4.769838e+00 1.031385e+00 8.911442e-04 -1.575564e+01 0 9.466446e+02 -1.009614e+00 1.332447e+01 
-6.845471e-01 1.007012e+00 4.841939e+00 -9.247028e-05 1.309341e+01 0 -8.265658e+02 -1.009614e+00 1.332447e+01 
-6.613119e-01 4.890631e+00 1.000081e+00 8.858005e-04 -1.293669e+01 0 7.178343e+02 -1.009614e+00 1.332447e+01 
-6.374240e-01 9.924184e-01 4.918076e+00 -2.000192e-04 1.054288e+01 0 -6.334290e+02 -1.009614e+00 1.332447e+01 
-6.129071e-01 4.937971e+00 9.948755e-01 8.719258e-04 -1.077047e+01 0 5.549565e+02 -1.009614e+00 1.332447e+01 
-5.877853e-01 9.920244e-01 4.947574e+00 -3.006518e-04 8.722069e+00 0 -4.949111e+02 -1.009614e+00 1.332447e+01 
-5.620834e-01 4.956193e+00 9.969251e-01 8.551946e-04 -9.257156e+00 0 4.364815e+02 -1.009614e+00 1.332447e+01 
-5.358268e-01 9.952390e-01 4.958748e+00 -3.956780e-04 7.473351e+00 0 -3.921156e+02 -1.009614e+00 1.332447e+01 
-5.090414e-01 4.963005e+00 1.000498e+00 8.377219e-04 -8.208312e+00 0 3.467709e+02 -1.009614e+00 1.332447e+01 
-4.817537e-01 9.989572e-01 4.962722e+00 -4.850564e-04 6.600173e+00 0 -3.125890e+02 -1.009614e+00 1.332447e+01 
-4.539905e-01 4.965275e+00 1.004033e+00 8.200817e-04 -7.454992e+00 0 2.759948e+02 -1.009614e+00 1.332447e+01 
-4.257793e-01 1.002416e+00 4.963780e+00 -5.683168e-04 5.958184e+00 0 -2.486270e+02 -1.009614e+00 1.332447e+01 
-3.971479e-01 4.965648e+00 1.007223e+00 8.022183e-04 -6.882087e+00 0 2.180759e+02 -1.009614e+00 1.332447e+01 
-3.681246e-01 1.005523e+00 4.963580e+00 -6.449301e-04 5.454489e+00 0 -1.954068e+02 -1.009614e+00 1.332447e+01 
-3.387379e-01 4.965159e+00 1.010090e+00 7.838327e-04 -6.415714e+00 0 1.691434e+02 -1.009614e+00 1.332447e+01 
-3.090170e-01 1.008341e+00 4.962784e+00 -7.144392e-04 5.028766e+00 0 -1.497844e+02 -1.009614e+00 1.332447e+01 
-2.789911e-01 4.964236e+00 1.012710e+00 7.645433e-04 -6.005528e+00 0 1.266138e+02 -1.009614e+00 1.332447e+01 
-2.486899e-01 1.010939e+00 4.961679e+00 -7.764997e-04 4.637570e+00 0 -1.096056e+02 -1.009614e+00 1.332447e+01 
-2.181432e-01 4.963080e+00 1.015137e+00 7.439559e-04 -5.612792e+00 0 8.867037e+01 -1.009614e+00 1.332447e+01 
-1.873813e-01 1.013350e+00 4.960415e+00 -8.308921e-04 4.245700e+00 0 -7.331299e+01 -1.009614e+00 1.332447e+01 
-1.564345e-01 4.961816e+00 1.017379e+00 7.217004e-04 -5.205093e+00 0 5.396226e+01 -1.009614e+00 1.332447e+01 
-1.253332e-01 1.015557e+00 4.959104e+00 -8.775257e-04 3.823624e+00 0 -3.971152e+01 -1.009614e+00 1.332447e+01 
-9.410831e-02 4.960555e+00 1.019394e+00 6.974514e-04 -4.756059e+00 0 2.141703e+01 -1.009614e+00 1.332447e+01 
-6.279052e-02 1.017496e+00 4.957856e+00 -9.164372e-04 3.348856e+00 0 -7.816230e+00 -1.009614e+00 1.332447e+01 
-3.141076e-02 4.959410e+00 1.021097e+00 6.709390e-04 -4.247879e+00 0 -9.886057e+00 -1.009614e+00 1.332447e+01 
-1.110223e-16 1.019064e+00 4.956787e+00 -9.477819e-04 2.809048e+00 0 2.325537e+01 -1.009614e+00 1.332447e+01 
3.141076e-02 4.958497e+00 1.022370e+00 6.419475e-04 -3.674410e+00 0 -4.080903e+01 -1.009614e+00 1.332447e+01 
6.279052e-02 1.020140e+00 4.956006e+00 -9.718173e-04 2.204606e+00 0 5.436502e+01 -1.009614e+00 1.332447e+01 
9.410831e-02 4.957916e+00 1.023096e+00 6.103073e-04 -3.042846e+00 0 -7.222825e+01 -1.009614e+00 1.332447e+01 
1.253332e-01 1.020617e+00 4.955594e+00 -9.888813e-04 1.549068e+00 0 8.642018e+01 -1.009614e+00 1.332447e+01 
1.564345e-01 4.957724e+00 1.023184e+00 5.758821e-04 -2.372490e+00 0 -1.050965e+02 -1.009614e+00 1.332447e+01 
1.873813e-01 1.020427e+00 4.955577e+00 -9.993707e-04 8.660998e-01 0 1.204341e+02 -1.009614e+00 1.332447e+01 
2.181432e-01 4.957912e+00 1.022592e+00 5.385599e-04 -1.689834e+00 0 -1.405038e+02 -1.009614e+00 1.332447e+01 
2.486899e-01 1.019561e+00 4.955903e+00 -1.003727e-03 1.826957e-01 0 1.575915e+02 -1.009614e+00 1.332447e+01 
2.789911e-01 4.958385e+00 1.021341e+00 4.982520e-04 -1.019990e+00 0 -1.797527e+02 -1.009614e+00 1.332447e+01 
3.090170e-01 1.018065e+00 4.956424e+00 -1.002431e-03 -4.809020e-01 0 1.993385e+02 -1.009614e+00 1.332447e+01 
3.387379e-01 4.958939e+00 1.019497e+00 4.549038e-04 -3.754617e-01 0 -2.244724e+02 -1.009614e+00 1.332447e+01 
3.681246e-01 1.016020e+00 4.956869e+00 -9.960141e-04 -1.123105e+00 0 2.475334e+02 -1.009614e+00 1.332447e+01 
3.971479e-01 4.959217e+00 1.017145e+00 4.085119e-04 2.558529e-01 0 -2.768194e+02 -1.009614e+00 1.332447e+01 
4.257793e-01 1.013512e+00 4.956755e+00 -9.850582e-04 -1.772628e+00 0 3.047153e+02 -1.009614e+00 1.332447e+01 
4.539905e-01 4.958547e+00 1.014373e+00 3.591293e-04 9.215368e-01 0 -3.398429e+02 -1.009614e+00 1.332447e+01 
4.817537e-01 1.010650e+00 4.955094e+00 -9.701806e-04 -2.498467e+00 0 3.745989e+02 -1.009614e+00 1.332447e+01 
5.090414e-01 4.955431e+00 1.011360e+00 3.068228e-04 1.713668e+00 0 -4.181515e+02 -1.009614e+00 1.332447e+01 
5.358268e-01 1.007789e+00 4.949541e+00 -9.519314e-04 -3.417798e+00 0 4.629653e+02 -1.009614e+00 1.332447e+01 
5.620834e-01 4.946133e+00 1.008825e+00 2.515071e-04 2.774888e+00 0 -5.190909e+02 -1.009614e+00 1.332447e+01 
5.877853e-01 1.006360e+00 4.934083e+00 -9.304990e-04 -4.697280e+00 0 5.791821e+02 -1.009614e+00 1.332447e+01 
6.129071e-01 4.920973e+00 1.009528e+00 1.925002e-04 4.289813e+00 0 -6.546360e+02 -1.009614e+00 1.332447e+01 
6.374240e-01 1.011510e+00 4.893196e+00 -9.049858e-04 -6.521088e+00 0 7.384042e+02 -1.009614e+00 1.332447e+01 
6.613119e-01 4.855195e+00 1.022873e+00 1.274972e-04 6.412159e+00 0 -8.436034e+02 -1.009614e+00 1.332447e+01 
6.845471e-01 1.040109e+00 4.787769e+00 -8.717752e-04 -8.937048e+00 0 9.630218e+02 -1.009614e+00 1.332447e+01 
7.071068e-01 4.687295e+00 1.079232e+00 5.037196e-05 8.994525e+00 0 -1.110536e+03 -1.009614e+00 1.332447e+01 
7.289686e-01 1.147474e+00 4.521247e+00 -8.209251e-04 -1.141443e+01 0 1.275350e+03 -1.009614e+00 1.332447e+01 
7.501111e-01 4.260277e+00 1.285628e+00 -5.396599e-05 1.110924e+01 0 -1.463627e+03 -1.009614e+00 1.332447e+01 
7.705132e-01 1.563423e+00 3.812920e+00 -7.225397e-04 -1.185246e+01 0 1.630730e+03 -1.009614e+00 1.332447e+01 
7.901550e-01 3.060404e+00 2.135250e+00 -2.652095e-04 -1.931509e+00 0 -1.693200e+03 -1.009614e+00 1.332447e+01 
8.090170e-01 2.919626e+00 2.127175e+00 -3.713461e-04 4.155560e+01 0 1.545650e+03 -1.009614e+00 1.332447e+01 
8.270806e-01 1.550395e+00 3.396138e+00 -6.163033e-04 -6.265602e+01 0 -1.129709e+03 -1.009614e+00 1.332447e+01 
8.443279e-01 3.060987e+00 1.684809e+00 -3.792883e-04 3.337596e+01 0 6.289840e+02 -1.009614e+00 1.332447e+01 
8.607420e-01 2.176865e+00 2.337776e+00 -3.109538e-04 2.076865e+01 0 -4.221559e+02 -1.009614e+00 1.332447e+01 
8.763067e-01 1.894806e+00 2.401266e+00 -5.746726e-04 -3.605572e+01 0 4.904038e+02 -1.009614e+00 1.332447e+01 
8.910065e-01 2.162514e+00 1.900101e+00 -3.084794e-04 6.002154e+00 0 -5.886111e+02 -1.009614e+00 1.332447e+01 
9.048271e-01 1.935627e+00 1.871528e+00 -4.561886e-04 1.103424e+01 0 5.488199e+02 -1.009614e+00 1.332447e+01 
9.177546e-01 1.766690e+00 1.782838e+00 -2.838878e-04 1.627527e+00 0 -4.600374e+02 -1.009614e+00 1.332447e+01 
9.297765e-01 1.597894e+00 1.675209e+00 -4.629566e-04 -5.346082e+00 0 4.197498e+02 -1.009614e+00 1.332447e+01 
9.408808e-01 1.496820e+00 1.499316e+00 -2.664684e-04 -3.451148e+00 0 -3.868107e+02 -1.009614e+00 1.332447e+01 
9.510565e-01 1.345755e+00 1.359295e+00 -4.277607e-04 -1.123665e+00 0 3.352585e+02 -1.009614e+00 1.332447e+01 
9.602937e-01 1.218173e+00 1.199575e+00 -2.327898e-04 9.706944e-02 0 -2.976598e+02 -1.009614e+00 1.332447e+01 
9.685832e-01 1.059727e+00 1.062012e+00 -3.921926e-04 1.342221e+00 0 2.578414e+02 -1.009614e+00 1.332447e+01 
9.759168e-01 9.227382e-01 9.118334e-01 -2.115744e-04 1.990733e-01 0 -2.192467e+02 -1.009614e+00 1.332447e+01 
9.822873e-01 7.717790e-01 7.747460e-01 -3.628111e-04 1.405204e+00 0 1.842001e+02 -1.009614e+00 1.332447e+01 
9.876883e-01 6.398509e-01 6.352827e-01 -2.021719e-04 -6.046371e-01 0 -1.500565e+02 -1.009614e+00 1.332447e+01 
9.921147e-01 5.070217e-01 5.092976e-01 -3.358784e-04 1.353005e+00 0 1.195980e+02 -1.009614e+00 1.332447e+01 
9.955620e-01 3.956849e-01 3.941333e-01 -2.045893e-04 -1.259646e+00 0 -9.260325e+01 -1.009614e+00 1.332447e+01 
9.980267e-01 3.007590e-01 3.019277e-01 -3.078183e-04 1.772652e+00 0 7.127942e+01 -1.009614e+00 1.332447e+01 
9.995066e-01 2.400391e-01 2.400231e-01 -2.244312e-04 -2.251037e+00 0 -5.733677e+01 -1.009614e+00 1.332447e+01 
1 2.225819e-01 2.229895e-01 -2.565792e-04 7.647059e+00 0 1.102526e+02 -1.009614e+00 1.332447e+01 
ZONE T="0.003", I=101
-1 1.236494e-01 2.607791e-01 2.039135e-04 7.368563e+00 0 -9.218258e+02 -9.577774e-01 1.290860e+01 
-9.995066e-01 2.419164e-01 2.303275e-01 2.394349e-04 -3.072374e+00 0 -3.066766e+02 -9.577774e-01 1.290860e+01 
-9.980267e-01 2.881659e-01 2.889586e-01 1.602045e-04 1.208285e+00 0 3.945106e+01 -9.577774e-01 1.290860e+01 
-9.955620e-01 3.754146e-01 3.610509e-01 2.782872e-04 -2.087988e+00 0 2.867896e+01 -9.577774e-01 1.290860e+01 
-9.921147e-01 4.606928e-01 4.674010e-01 1.585455e-04 7.317916e-01 0 -7.204709e+01 -9.577774e-01 1.290860e+01 
-9.876883e-01 5.874732e-01 5.668505e-01 3.169594e-04 -1.736045e+00 0 1.104013e+02 -9.577774e-01 1.290860e+01 
-9.822873e-01 6.874980e-01 7.026723e-01 1.753884e-04 4.681971e-01 0 -1.483488e+02 -9.577774e-01 1.290860e+01 
-9.759168e-01 8.388680e-01 8.077675e-01 3.605233e-04 -1.597325e+00 0 1.866974e+02 -9.577774e-01 1.290860e+01 
-9.685832e-01 9.375455e-01 9.631016e-01 2.064475e-04 3.835879e-02 0 -2.269534e+02 -9.577774e-01 1.290860e+01 
-9.602937e-01 1.108347e+00 1.059691e+00 4.089330e-04 -1.894179e+00 0 2.670556e+02 -9.577774e-01 1.290860e+01 
-9.510565e-01 1.195616e+00 1.230280e+00 2.476038e-04 -9.792687e-01 0 -3.117662e+02 -9.577774e-01 1.290860e+01 
-9.408808e-01 1.386923e+00 1.305878e+00 4.578427e-04 -2.610814e+00 0 3.536082e+02 -9.577774e-01 1.290860e+01 
-9.297765e-01 1.450991e+00 1.494068e+00 2.882641e-04 -1.403703e+00 0 -4.021883e+02 -9.577774e-01 1.290860e+01 
-9.177546e-01 1.656394e+00 1.546822e+00 4.917095e-04 -1.057974e-01 0 4.543944e+02 -9.577774e-01 1.290860e+01 
-9.048271e-01 1.658622e+00 1.784501e+00 3.104587e-04 3.640050e+00 0 -4.936079e+02 -9.577774e-01 1.290860e+01 
-8.910065e-01 1.871994e+00 1.812893e+00 5.165682e-04 3.553439e+00 0 5.603468e+02 -9.577774e-01 1.290860e+01 
-8.763067e-01 1.879175e+00 2.027292e+00 3.722930e-04 -7.077524e+00 0 -6.444011e+02 -9.577774e-01 1.290860e+01 
-8.607420e-01 2.300300e+00 1.831580e+00 5.885186e-04 -1.106401e+01 0 6.620298e+02 -9.577774e-01 1.290860e+01 
-8.443279e-01 2.007890e+00 2.318007e+00 3.199164e-04 1.352513e+01 0 -6.528217e+02 -9.577774e-01 1.290860e+01 
-8.270806e-01 2.150791e+00 2.368668e+00 4.749115e-04 1.052331e+01 0 7.760605e+02 -9.577774e-01 1.290860e+01 
-8.090170e-01 2.491401e+00 2.196474e+00 4.747378e-04 -2.714946e+01 0 -1.027736e+03 -9.577774e-01 1.290860e+01 
-7.901550e-01 2.658718e+00 2.196931e+00 5.103036e-04 1.870710e+01 0 1.248529e+03 -9.577774e-01 1.290860e+01 
-7.705132e-01 1.778683e+00 3.252540e+00 2.205570e-04 -4.237613e+00 0 -1.342856e+03 -9.577774e-01 1.290860e+01 
-7.501111e-01 3.778904e+00 1.448395e+00 6.906417e-04 -4.731258e+00 0 1.322856e+03 -9.577774e-01 1.290860e+01 
-7.289686e-01 1.235780e+00 4.161012e+00 5.272514e-06 7.613560e+00 0 -1.238032e+03 -9.577774e-01 1.290860e+01 
-7.071068e-01 4.441786e+00 1.108023e+00 7.676850e-04 -9.866020e+00 0 1.119464e+03 -9.577774e-01 1.290860e+01 
-6.845471e-01 1.027561e+00 4.633601e+00 -1.544823e-04 9.185420e+00 0 -9.997319e+02 -9.577774e-01 1.290860e+01 
-6.613119e-01 4.769538e+00 9.846294e-01 7.942949e-04 -9.769631e+00 0 8.795629e+02 -9.577774e-01 1.290860e+01 
-6.374240e-01 9.556313e-01 4.857652e+00 -2.842279e-04 8.061444e+00 0 -7.767967e+02 -9.577774e-01 1.290860e+01 
-6.129071e-01 4.919056e+00 9.448913e-01 7.952953e-04 -8.337293e+00 0 6.805966e+02 -9.577774e-01 1.290860e+01 
-5.877853e-01 9.347884e-01 4.956553e+00 -3.965359e-04 6.506243e+00 0 -6.032037e+02 -9.577774e-01 1.290860e+01 
-5.620834e-01 4.983418e+00 9.353764e-01 7.847850e-04 -6.895691e+00 0 5.305592e+02 -9.577774e-01 1.290860e+01 
-5.358268e-01 9.316660e-01 4.998179e+00 -4.979386e-04 5.201975e+00 0 -4.735157e+02 -9.577774e-01 1.290860e+01 
-5.090414e-01 5.010100e+00 9.357453e-01 7.697350e-04 -5.768428e+00 0 4.182349e+02 -9.577774e-01 1.290860e+01 
-4.817537e-01 9.338906e-01 5.015123e+00 -5.912195e-04 4.237850e+00 0 -3.752745e+02 -9.577774e-01 1.290860e+01 
-4.539905e-01 5.020856e+00 9.387075e-01 7.530868e-04 -4.945642e+00 0 3.318733e+02 -9.577774e-01 1.290860e+01 
-4.257793e-01 9.371880e-01 5.021804e+00 -6.772592e-04 3.541962e+00 0 -2.983331e+02 -9.577774e-01 1.290860e+01 
-3.971479e-01 5.025059e+00 9.418766e-01 7.358048e-04 -4.344110e+00 0 2.629964e+02 -9.577774e-01 1.290860e+01 
-3.681246e-01 9.402529e-01 5.024308e+00 -7.561164e-04 3.026948e+00 0 -2.357903e+02 -9.577774e-01 1.290860e+01 
-3.387379e-01 5.026608e+00 9.446001e-01 7.179735e-04 -3.887596e+00 0 2.060056e+02 -9.577774e-01 1.290860e+01 
-3.090170e-01 9.427865e-01 5.025142e+00 -8.275723e-04 2.626575e+00 0 -1.831212e+02 -9.577774e-01 1.290860e+01 
-2.789911e-01 5.027104e+00 9.467800e-01 6.993216e-04 -3.522508e+00 0 1.572149e+02 -9.577774e-01 1.290860e+01 
-2.486899e-01 9.447887e-01 5.025331e+00 -8.913740e-04 2.297337e+00 0 -1.373012e+02 -9.577774e-01 1.290860e+01 
-2.181432e-01 5.027205e+00 9.484633e-01 6.794535e-04 -3.214505e+00 0 1.141117e+02 -9.577774e-01 1.290860e+01 
-1.873813e-01 9.463232e-01 5.025301e+00 -9.473312e-04 2.011998e+00 0 -9.621425e+01 -9.577774e-01 1.290860e+01 
-1.564345e-01 5.027188e+00 9.497152e-01 6.579478e-04 -2.942055e+00 0 7.488802e+01 -9.577774e-01 1.290860e+01 
-1.253332e-01 9.474498e-01 5.025232e+00 -9.953506e-04 1.753417e+00 0 -5.828858e+01 -9.577774e-01 1.290860e+01 
-9.410831e-02 5.027174e+00 9.505857e-01 6.343993e-04 -2.691318e+00 0 3.815661e+01 -9.577774e-01 1.290860e+01 
-6.279052e-02 9.482097e-01 5.025204e+00 -1.035445e-03 1.510291e+00 0 -2.227486e+01 -9.577774e-01 1.290860e+01 
-3.141076e-02 5.027216e+00 9.511059e-01 6.084391e-04 -2.452797e+00 0 2.773595e+00 -9.577774e-01 1.290860e+01 
-1.110223e-16 9.486252e-01 5.025248e+00 -1.067734e-03 1.274467e+00 0 1.289754e+01 -9.577774e-01 1.290860e+01 
3.141076e-02 5.027334e+00 9.512884e-01 5.797457e-04 -2.219206e+00 0 -3.228117e+01 -9.577774e-01 1.290860e+01 
6.279052e-02 9.487016e-01 5.025372e+00 -1.092439e-03 1.039180e+00 0 4.822362e+01 -9.577774e-01 1.290860e+01 
9.410831e-02 5.027527e+00 9.511298e-01 5.480519e-04 -1.983959e+00 0 -6.799679e+01 -9.577774e-01 1.290860e+01 
1.253332e-01 9.484279e-01 5.025566e+00 -1.109883e-03 7.976702e-01 0 8.470985e+01 -9.577774e-01 1.290860e+01 
1.564345e-01 5.027774e+00 9.506098e-01 5.131510e-04 -1.739812e+00 0 -1.054173e+02 -9.577774e-01 1.290860e+01 
1.873813e-01 9.477754e-01 5.025790e+00 -1.120480e-03 5.417333e-01 0 1.234635e+02 -9.577774e-01 1.290860e+01 
2.181432e-01 5.028017e+00 9.496891e-01 4.748989e-04 -1.477236e+00 0 -1.457394e+02 -9.577774e-01 1.290860e+01 
2.486899e-01 9.466957e-01 5.025955e+00 -1.124729e-03 2.597825e-01 0 1.658041e+02 -9.577774e-01 1.290860e+01 
2.789911e-01 5.028119e+00 9.483087e-01 4.332146e-04 -1.182048e+00 0 -1.904440e+02 -9.577774e-01 1.290860e+01 
3.090170e-01 9.451223e-01 5.025846e+00 -1.123204e-03 -6.609220e-02 0 2.134236e+02 -9.577774e-01 1.290860e+01 
3.387379e-01 5.027750e+00 9.463981e-01 3.880695e-04 -8.317916e-01 0 -2.414970e+02 -9.577774e-01 1.290860e+01 
3.681246e-01 9.429941e-01 5.024946e+00 -1.116521e-03 -4.645524e-01 0 2.686416e+02 -9.577774e-01 1.290860e+01 
3.971479e-01 5.026101e+00 9.439259e-01 3.394515e-04 -3.905562e-01 0 -3.016751e+02 -9.577774e-01 1.290860e+01 
4.257793e-01 9.403546e-01 5.021980e+00 -1.105270e-03 -9.806881e-01 0 3.348227e+02 -9.577774e-01 1.290860e+01 
4.539905e-01 5.021166e+00 9.410846e-01 2.872638e-04 1.964976e-01 0 -3.750990e+02 -9.577774e-01 1.290860e+01 
4.817537e-01 9.376804e-01 5.013792e+00 -1.089848e-03 -1.679721e+00 0 4.170459e+02 -9.577774e-01 1.290860e+01 
5.090414e-01 5.008018e+00 9.388578e-01 2.310758e-04 1.002450e+00 0 -4.680460e+02 -9.577774e-01 1.290860e+01 
5.358268e-01 9.368352e-01 4.992729e+00 -1.070066e-03 -2.636605e+00 0 5.230327e+02 -9.577774e-01 1.290860e+01 