TITLE = "2 species of PNP-Steric with high order term" 
VARIABLES = "X" "Conc1" "Conc2" "phi" "Current_x""I_ext" "I_PNP" "CURRENT" "ENERGY" "
ZONE T="4.2609e-10", I=101
-1 2.621096e+00 2.621080e+00 -1.000000e-04 1.831998e-11 0 -1.640513e-11 -1.099084e-14 1.318335e+01 
-9.995066e-01 2.933192e+00 2.933189e+00 -1.000000e-04 1.093631e-11 0 6.988004e-13 -1.099084e-14 1.318335e+01 
-9.980267e-01 3.024499e+00 3.024500e+00 -1.000000e-04 -2.408087e-11 0 -4.781159e-12 -1.099084e-14 1.318335e+01 
-9.955620e-01 2.986656e+00 2.986655e+00 -1.000000e-04 7.344253e-12 0 2.838661e-13 -1.099084e-14 1.318335e+01 
-9.921147e-01 3.008584e+00 3.008584e+00 -1.000000e-04 4.025368e-12 0 3.352307e-12 -1.099084e-14 1.318335e+01 
-9.876883e-01 2.993947e+00 2.993946e+00 -1.000000e-04 -1.033274e-12 0 -1.448632e-12 -1.099084e-14 1.318335e+01 
-9.822873e-01 3.004525e+00 3.004525e+00 -1.000000e-04 -1.846666e-12 0 -2.133563e-13 -1.099084e-14 1.318335e+01 
-9.759168e-01 2.996480e+00 2.996480e+00 -1.000000e-04 -3.679800e-12 0 -1.079793e-12 -1.099084e-14 1.318335e+01 
-9.685832e-01 3.002820e+00 3.002820e+00 -1.000000e-04 6.401585e-12 0 7.416035e-13 -1.099084e-14 1.318335e+01 
-9.602937e-01 2.997692e+00 2.997692e+00 -1.000000e-04 -2.617369e-12 0 -2.768108e-13 -1.099084e-14 1.318335e+01 
-9.510565e-01 3.001922e+00 3.001922e+00 -1.000000e-04 1.941547e-12 0 -5.288284e-15 -1.099084e-14 1.318335e+01 
-9.408808e-01 2.998377e+00 2.998377e+00 -1.000000e-04 -2.643156e-12 0 4.484828e-13 -1.099084e-14 1.318335e+01 
-9.297765e-01 3.001385e+00 3.001385e+00 -1.000000e-04 3.516888e-13 0 -1.315931e-13 -1.099084e-14 1.318335e+01 
-9.177546e-01 2.998808e+00 2.998807e+00 -1.000000e-04 -1.279124e-12 0 -9.712608e-13 -1.099084e-14 1.318335e+01 
-9.048271e-01 3.001034e+00 3.001034e+00 -1.000000e-04 1.271125e-12 0 7.460942e-13 -1.099084e-14 1.318335e+01 
-8.910065e-01 2.999097e+00 2.999097e+00 -1.000000e-04 -1.958673e-12 0 -3.553298e-13 -1.099084e-14 1.318335e+01 
-8.763067e-01 3.000791e+00 3.000792e+00 -1.000000e-04 2.865314e-12 0 2.635316e-13 -1.099084e-14 1.318335e+01 
-8.607420e-01 2.999303e+00 2.999303e+00 -1.000000e-04 -1.588824e-12 0 -3.568259e-13 -1.099084e-14 1.318335e+01 
-8.443279e-01 3.000616e+00 3.000616e+00 -1.000000e-04 -1.301222e-13 0 1.672552e-13 -1.099084e-14 1.318335e+01 
-8.270806e-01 2.999455e+00 2.999455e+00 -1.000000e-04 6.312195e-13 0 1.561641e-14 -1.099084e-14 1.318335e+01 
-8.090170e-01 3.000484e+00 3.000484e+00 -1.000000e-04 -1.919781e-13 0 -8.166539e-14 -1.099084e-14 1.318335e+01 
-7.901550e-01 2.999569e+00 2.999569e+00 -1.000000e-04 9.296511e-13 0 1.292265e-12 -1.099084e-14 1.318335e+01 
-7.705132e-01 3.000383e+00 3.000383e+00 -1.000000e-04 -1.437861e-12 0 -1.069701e-12 -1.099084e-14 1.318335e+01 
-7.501111e-01 2.999659e+00 2.999659e+00 -1.000000e-04 -1.474562e-13 0 -6.203029e-13 -1.099084e-14 1.318335e+01 
-7.289686e-01 3.000304e+00 3.000304e+00 -1.000000e-04 1.471834e-12 0 1.261573e-12 -1.099084e-14 1.318335e+01 
-7.071068e-01 2.999729e+00 2.999729e+00 -1.000000e-04 -4.495587e-13 0 -2.688154e-13 -1.099084e-14 1.318335e+01 
-6.845471e-01 3.000241e+00 3.000241e+00 -1.000000e-04 1.012439e-12 0 3.046480e-13 -1.099084e-14 1.318335e+01 
-6.613119e-01 2.999786e+00 2.999786e+00 -1.000000e-04 -2.207025e-12 0 -1.200700e-12 -1.099084e-14 1.318335e+01 
-6.374240e-01 3.000190e+00 3.000190e+00 -1.000000e-04 1.222503e-12 0 1.105315e-12 -1.099084e-14 1.318335e+01 
-6.129071e-01 2.999832e+00 2.999832e+00 -1.000000e-04 -6.671425e-13 0 -9.259357e-13 -1.099084e-14 1.318335e+01 
-5.877853e-01 3.000149e+00 3.000149e+00 -1.000000e-04 -2.723549e-13 0 -2.823956e-13 -1.099084e-14 1.318335e+01 
-5.620834e-01 2.999869e+00 2.999869e+00 -1.000000e-04 1.708676e-12 0 1.417152e-12 -1.099084e-14 1.318335e+01 
-5.358268e-01 3.000115e+00 3.000115e+00 -1.000000e-04 -1.448921e-12 0 -1.048679e-12 -1.099084e-14 1.318335e+01 
-5.090414e-01 2.999900e+00 2.999900e+00 -1.000000e-04 2.726982e-13 0 -1.932067e-13 -1.099084e-14 1.318335e+01 
-4.817537e-01 3.000087e+00 3.000087e+00 -1.000000e-04 5.533966e-13 0 1.047074e-12 -1.099084e-14 1.318335e+01 
-4.539905e-01 2.999925e+00 2.999925e+00 -1.000000e-04 -7.253425e-13 0 -9.366443e-13 -1.099084e-14 1.318335e+01 
-4.257793e-01 3.000064e+00 3.000064e+00 -1.000000e-04 1.515148e-12 0 1.047999e-12 -1.099084e-14 1.318335e+01 
-3.971479e-01 2.999945e+00 2.999945e+00 -1.000000e-04 -1.231839e-12 0 -5.054674e-13 -1.099084e-14 1.318335e+01 
-3.681246e-01 3.000046e+00 3.000046e+00 -1.000000e-04 3.887571e-13 0 2.780112e-13 -1.099084e-14 1.318335e+01 
-3.387379e-01 2.999962e+00 2.999962e+00 -1.000000e-04 1.015372e-13 0 -4.660269e-13 -1.099084e-14 1.318335e+01 
-3.090170e-01 3.000031e+00 3.000031e+00 -1.000000e-04 -9.831802e-13 0 -6.590450e-13 -1.099084e-14 1.318335e+01 
-2.789911e-01 2.999975e+00 2.999975e+00 -1.000000e-04 4.497293e-13 0 1.035722e-13 -1.099084e-14 1.318335e+01 
-2.486899e-01 3.000019e+00 3.000019e+00 -1.000000e-04 -1.571097e-12 0 -1.515585e-13 -1.099084e-14 1.318335e+01 
-2.181432e-01 2.999985e+00 2.999985e+00 -1.000000e-04 7.815590e-13 0 2.094736e-13 -1.099084e-14 1.318335e+01 
-1.873813e-01 3.000011e+00 3.000011e+00 -1.000000e-04 1.383448e-12 0 7.964022e-13 -1.099084e-14 1.318335e+01 
-1.564345e-01 2.999993e+00 2.999993e+00 -1.000000e-04 -5.783046e-13 0 -4.074483e-13 -1.099084e-14 1.318335e+01 
-1.253332e-01 3.000005e+00 3.000005e+00 -1.000000e-04 -6.805716e-13 0 -3.504300e-13 -1.099084e-14 1.318335e+01 
-9.410831e-02 2.999997e+00 2.999997e+00 -1.000000e-04 -1.725580e-13 0 6.015331e-13 -1.099084e-14 1.318335e+01 
-6.279052e-02 3.000001e+00 3.000001e+00 -1.000000e-04 1.371386e-12 0 -3.618108e-13 -1.099084e-14 1.318335e+01 
-3.141076e-02 3.000000e+00 3.000000e+00 -1.000000e-04 -1.342890e-13 0 1.918615e-13 -1.099084e-14 1.318335e+01 
-1.110223e-16 3 3 -1.000000e-04 2.022205e-13 0 2.257680e-13 -1.099084e-14 1.318335e+01 
3.141076e-02 3.000000e+00 3.000000e+00 -1.000000e-04 7.403408e-13 0 8.561989e-14 -1.099084e-14 1.318335e+01 
6.279052e-02 3.000001e+00 3.000001e+00 -1.000000e-04 -3.640320e-12 0 -1.252722e-12 -1.099084e-14 1.318335e+01 
9.410831e-02 2.999997e+00 2.999997e+00 -1.000000e-04 2.499825e-12 0 1.140242e-12 -1.099084e-14 1.318335e+01 
1.253332e-01 3.000005e+00 3.000005e+00 -1.000000e-04 5.539458e-13 0 3.248108e-13 -1.099084e-14 1.318335e+01 
1.564345e-01 2.999993e+00 2.999993e+00 -1.000000e-04 -9.458272e-13 0 -6.816083e-13 -1.099084e-14 1.318335e+01 
1.873813e-01 3.000011e+00 3.000011e+00 -1.000000e-04 -5.574592e-13 0 -2.549118e-13 -1.099084e-14 1.318335e+01 
2.181432e-01 2.999985e+00 2.999985e+00 -1.000000e-04 -5.205075e-14 0 1.544288e-13 -1.099084e-14 1.318335e+01 
2.486899e-01 3.000019e+00 3.000019e+00 -1.000000e-04 1.806056e-12 0 4.778110e-13 -1.099084e-14 1.318335e+01 
2.789911e-01 2.999975e+00 2.999975e+00 -1.000000e-04 -9.650902e-13 0 -4.699128e-13 -1.099084e-14 1.318335e+01 
3.090170e-01 3.000031e+00 3.000031e+00 -1.000000e-04 5.657466e-13 0 4.628306e-13 -1.099084e-14 1.318335e+01 
3.387379e-01 2.999962e+00 2.999962e+00 -1.000000e-04 -9.608694e-15 0 2.652681e-13 -1.099084e-14 1.318335e+01 
3.681246e-01 3.000046e+00 3.000046e+00 -1.000000e-04 -4.121761e-13 0 -1.271681e-13 -1.099084e-14 1.318335e+01 
3.971479e-01 2.999945e+00 2.999945e+00 -1.000000e-04 4.966376e-13 0 4.987444e-14 -1.099084e-14 1.318335e+01 
4.257793e-01 3.000064e+00 3.000064e+00 -1.000000e-04 -3.985364e-13 0 -1.130584e-13 -1.099084e-14 1.318335e+01 
4.539905e-01 2.999925e+00 2.999925e+00 -1.000000e-04 1.817035e-13 0 2.506142e-13 -1.099084e-14 1.318335e+01 
4.817537e-01 3.000087e+00 3.000087e+00 -1.000000e-04 -2.822310e-13 0 -6.694877e-13 -1.099084e-14 1.318335e+01 
5.090414e-01 2.999900e+00 2.999900e+00 -1.000000e-04 -4.305753e-13 0 -7.230530e-14 -1.099084e-14 1.318335e+01 
5.358268e-01 3.000115e+00 3.000115e+00 -1.000000e-04 7.975097e-13 0 4.722094e-13 -1.099084e-14 1.318335e+01 
5.620834e-01 2.999869e+00 2.999869e+00 -1.000000e-04 2.416194e-13 0 9.624133e-14 -1.099084e-14 1.318335e+01 
5.877853e-01 3.000149e+00 3.000149e+00 -1.000000e-04 -7.298257e-13 0 -1.747980e-13 -1.099084e-14 1.318335e+01 
6.129071e-01 2.999832e+00 2.999832e+00 -1.000000e-04 4.900964e-13 0 2.474111e-13 -1.099084e-14 1.318335e+01 
6.374240e-01 3.000190e+00 3.000190e+00 -1.000000e-04 -6.381666e-13 0 -2.405248e-13 -1.099084e-14 1.318335e+01 
6.613119e-01 2.999786e+00 2.999786e+00 -1.000000e-04 6.771437e-13 0 -5.735078e-16 -1.099084e-14 1.318335e+01 
6.845471e-01 3.000241e+00 3.000241e+00 -1.000000e-04 -6.198313e-13 0 -1.203392e-13 -1.099084e-14 1.318335e+01 
7.071068e-01 2.999729e+00 2.999729e+00 -1.000000e-04 1.342681e-13 0 1.986027e-13 -1.099084e-14 1.318335e+01 
7.289686e-01 3.000304e+00 3.000304e+00 -1.000000e-04 -1.810761e-13 0 -3.858126e-13 -1.099084e-14 1.318335e+01 
7.501111e-01 2.999659e+00 2.999659e+00 -1.000000e-04 -7.814252e-13 0 -1.169640e-14 -1.099084e-14 1.318335e+01 
7.705132e-01 3.000383e+00 3.000383e+00 -1.000000e-04 2.030908e-13 0 1.243487e-13 -1.099084e-14 1.318335e+01 
7.901550e-01 2.999569e+00 2.999569e+00 -1.000000e-04 -1.629416e-14 0 -3.752487e-13 -1.099084e-14 1.318335e+01 
8.090170e-01 3.000484e+00 3.000484e+00 -1.000000e-04 9.581985e-14 0 -2.407132e-13 -1.099084e-14 1.318335e+01 
8.270806e-01 2.999455e+00 2.999455e+00 -1.000000e-04 5.346008e-15 0 5.041116e-13 -1.099084e-14 1.318335e+01 
8.443279e-01 3.000616e+00 3.000616e+00 -1.000000e-04 -2.272414e-13 0 -5.072087e-13 -1.099084e-14 1.318335e+01 
8.607420e-01 2.999303e+00 2.999303e+00 -1.000000e-04 6.122212e-13 0 4.079241e-15 -1.099084e-14 1.318335e+01 
8.763067e-01 3.000791e+00 3.000792e+00 -1.000000e-04 -1.444975e-12 0 3.289983e-13 -1.099084e-14 1.318335e+01 
8.910065e-01 2.999097e+00 2.999097e+00 -1.000000e-04 8.886622e-13 0 -7.521206e-14 -1.099084e-14 1.318335e+01 
9.048271e-01 3.001034e+00 3.001034e+00 -1.000000e-04 -2.092441e-13 0 -3.095574e-13 -1.099084e-14 1.318335e+01 
9.177546e-01 2.998808e+00 2.998807e+00 -1.000000e-04 -1.171755e-13 0 3.596250e-13 -1.099084e-14 1.318335e+01 
9.297765e-01 3.001385e+00 3.001385e+00 -1.000000e-04 -1.378141e-13 0 1.583253e-13 -1.099084e-14 1.318335e+01 
9.408808e-01 2.998377e+00 2.998377e+00 -1.000000e-04 1.982648e-12 0 -7.036479e-13 -1.099084e-14 1.318335e+01 
9.510565e-01 3.001922e+00 3.001922e+00 -1.000000e-04 -9.635171e-13 0 4.234045e-13 -1.099084e-14 1.318335e+01 
9.602937e-01 2.997692e+00 2.997692e+00 -1.000000e-04 1.130362e-12 0 -3.992448e-13 -1.099084e-14 1.318335e+01 
9.685832e-01 3.002820e+00 3.002820e+00 -1.000000e-04 -3.460051e-12 0 6.645626e-13 -1.099084e-14 1.318335e+01 
9.759168e-01 2.996480e+00 2.996480e+00 -1.000000e-04 3.944032e-12 0 1.274166e-12 -1.099084e-14 1.318335e+01 
9.822873e-01 3.004525e+00 3.004525e+00 -1.000000e-04 5.982509e-13 0 -4.711922e-13 -1.099084e-14 1.318335e+01 
9.876883e-01 2.993947e+00 2.993946e+00 -1.000000e-04 8.063037e-13 0 1.393945e-12 -1.099084e-14 1.318335e+01 
9.921147e-01 3.008584e+00 3.008584e+00 -1.000000e-04 -1.742537e-12 0 -2.268476e-12 -1.099084e-14 1.318335e+01 
9.955620e-01 2.986656e+00 2.986655e+00 -1.000000e-04 -7.287039e-12 0 -1.985887e-13 -1.099084e-14 1.318335e+01 
9.980267e-01 3.024499e+00 3.024500e+00 -1.000000e-04 1.918156e-11 0 2.275471e-12 -1.099084e-14 1.318335e+01 
9.995066e-01 2.933192e+00 2.933189e+00 -1.000000e-04 -7.700121e-12 0 9.749474e-13 -1.099084e-14 1.318335e+01 
1 2.621096e+00 2.621080e+00 -1.000000e-04 -2.416641e-11 0 1.337085e-11 -1.099084e-14 1.318335e+01 
ZONE T="8.5219e-10", I=101
-1 2.320891e+00 2.323642e+00 -9.999935e-05 1.688868e+03 0 7.389465e-02 8.292034e-01 1.318232e+01 
-9.995066e-01 2.878650e+00 2.878922e+00 -9.999935e-05 5.745201e+02 0 3.515640e-02 8.292034e-01 1.318232e+01 
-9.980267e-01 3.043538e+00 3.043329e+00 -9.999935e-05 -1.481413e+02 0 -6.014550e-03 8.292034e-01 1.318232e+01 
-9.955620e-01 2.976289e+00 2.976410e+00 -9.999935e-05 6.504330e+01 0 2.132654e-03 8.292034e-01 1.318232e+01 
-9.921147e-01 3.015260e+00 3.015181e+00 -9.999935e-05 -3.687677e+01 0 -1.069453e-03 8.292034e-01 1.318232e+01 
-9.876883e-01 2.989235e+00 2.989291e+00 -9.999935e-05 2.350369e+01 0 6.206444e-04 8.292034e-01 1.318232e+01 
-9.822873e-01 3.008049e+00 3.008006e+00 -9.999935e-05 -1.639452e+01 0 -4.053287e-04 8.292034e-01 1.318232e+01 
-9.759168e-01 2.993737e+00 2.993770e+00 -9.999935e-05 1.202556e+01 0 2.809092e-04 8.292034e-01 1.318232e+01 
-9.685832e-01 3.005017e+00 3.004990e+00 -9.999935e-05 -9.237953e+00 0 -2.065356e-04 8.292034e-01 1.318232e+01 
-9.602937e-01 2.995892e+00 2.995914e+00 -9.999935e-05 7.296864e+00 0 1.567147e-04 8.292034e-01 1.318232e+01 
-9.510565e-01 3.003421e+00 3.003403e+00 -9.999935e-05 -5.928073e+00 0 -1.231841e-04 8.292034e-01 1.318232e+01 
-9.408808e-01 2.997112e+00 2.997127e+00 -9.999935e-05 4.901922e+00 0 9.871212e-05 8.292034e-01 1.318232e+01 
-9.297765e-01 3.002465e+00 3.002452e+00 -9.999935e-05 -4.130932e+00 0 -8.096748e-05 8.292034e-01 1.318232e+01 
-9.177546e-01 2.997877e+00 2.997889e+00 -9.999935e-05 3.524081e+00 0 6.727308e-05 8.292034e-01 1.318232e+01 
-9.048271e-01 3.001841e+00 3.001831e+00 -9.999935e-05 -3.047658e+00 0 -5.681963e-05 8.292034e-01 1.318232e+01 
-8.910065e-01 2.998393e+00 2.998402e+00 -9.999935e-05 2.659492e+00 0 4.842977e-05 8.292034e-01 1.318232e+01 
-8.763067e-01 3.001409e+00 3.001401e+00 -9.999935e-05 -2.344759e+00 0 -4.177908e-05 8.292034e-01 1.318232e+01 
-8.607420e-01 2.998759e+00 2.998766e+00 -9.999935e-05 2.081655e+00 0 3.628418e-05 8.292034e-01 1.318232e+01 
-8.443279e-01 3.001096e+00 3.001090e+00 -9.999935e-05 -1.862980e+00 0 -3.179990e-05 8.292034e-01 1.318232e+01 
-8.270806e-01 2.999029e+00 2.999034e+00 -9.999935e-05 1.676513e+00 0 2.801106e-05 8.292034e-01 1.318232e+01 
-8.090170e-01 3.000862e+00 3.000857e+00 -9.999935e-05 -1.518465e+00 0 -2.484645e-05 8.292034e-01 1.318232e+01 
-7.901550e-01 2.999233e+00 2.999238e+00 -9.999935e-05 1.381556e+00 0 2.212442e-05 8.292034e-01 1.318232e+01 
-7.705132e-01 3.000682e+00 3.000678e+00 -9.999935e-05 -1.263651e+00 0 -1.980696e-05 8.292034e-01 1.318232e+01 
-7.501111e-01 2.999392e+00 2.999396e+00 -9.999935e-05 1.160199e+00 0 1.778408e-05 8.292034e-01 1.318232e+01 
-7.289686e-01 3.000541e+00 3.000538e+00 -9.999935e-05 -1.069925e+00 0 -1.603374e-05 8.292034e-01 1.318232e+01 
-7.071068e-01 2.999518e+00 2.999521e+00 -9.999935e-05 9.898747e-01 0 1.448675e-05 8.292034e-01 1.318232e+01 
-6.845471e-01 3.000429e+00 3.000426e+00 -9.999935e-05 -9.192400e-01 0 -1.312923e-05 8.292034e-01 1.318232e+01 
-6.613119e-01 2.999619e+00 2.999621e+00 -9.999935e-05 8.560466e-01 0 1.191632e-05 8.292034e-01 1.318232e+01 
-6.374240e-01 3.000338e+00 3.000336e+00 -9.999935e-05 -7.997543e-01 0 -1.083859e-05 8.292034e-01 1.318232e+01 
-6.129071e-01 2.999700e+00 2.999702e+00 -9.999935e-05 7.490112e-01 0 9.866228e-06 8.292034e-01 1.318232e+01 
-5.877853e-01 3.000265e+00 3.000263e+00 -9.999935e-05 -7.034378e-01 0 -8.992353e-06 8.292034e-01 1.318232e+01 
-5.620834e-01 2.999767e+00 2.999769e+00 -9.999935e-05 6.620901e-01 0 8.196780e-06 8.292034e-01 1.318232e+01 
-5.358268e-01 3.000204e+00 3.000203e+00 -9.999935e-05 -6.246889e-01 0 -7.474170e-06 8.292034e-01 1.318232e+01 
-5.090414e-01 2.999822e+00 2.999823e+00 -9.999935e-05 5.905648e-01 0 6.810630e-06 8.292034e-01 1.318232e+01 
-4.817537e-01 3.000155e+00 3.000154e+00 -9.999935e-05 -5.595038e-01 0 -6.201839e-06 8.292034e-01 1.318232e+01 
-4.539905e-01 2.999866e+00 2.999868e+00 -9.999935e-05 5.310254e-01 0 5.638087e-06 8.292034e-01 1.318232e+01 
-4.257793e-01 3.000114e+00 3.000113e+00 -9.999935e-05 -5.049594e-01 0 -5.115755e-06 8.292034e-01 1.318232e+01 
-3.971479e-01 2.999903e+00 2.999904e+00 -9.999935e-05 4.809578e-01 0 4.627953e-06 8.292034e-01 1.318232e+01 
-3.681246e-01 3.000082e+00 3.000081e+00 -9.999935e-05 -4.588814e-01 0 -4.171589e-06 8.292034e-01 1.318232e+01 
-3.387379e-01 2.999932e+00 2.999933e+00 -9.999935e-05 4.384760e-01 0 3.741681e-06 8.292034e-01 1.318232e+01 
-3.090170e-01 3.000055e+00 3.000055e+00 -9.999935e-05 -4.196253e-01 0 -3.335542e-06 8.292034e-01 1.318232e+01 
-2.789911e-01 2.999956e+00 2.999956e+00 -9.999935e-05 4.021424e-01 0 2.949484e-06 8.292034e-01 1.318232e+01 
-2.486899e-01 3.000035e+00 3.000034e+00 -9.999935e-05 -3.859289e-01 0 -2.581146e-06 8.292034e-01 1.318232e+01 
-2.181432e-01 2.999974e+00 2.999974e+00 -9.999935e-05 3.708462e-01 0 2.227709e-06 8.292034e-01 1.318232e+01 
-1.873813e-01 3.000019e+00 3.000019e+00 -9.999935e-05 -3.568104e-01 0 -1.887070e-06 8.292034e-01 1.318232e+01 
-1.564345e-01 2.999987e+00 2.999987e+00 -9.999935e-05 3.437180e-01 0 1.556978e-06 8.292034e-01 1.318232e+01 
-1.253332e-01 3.000008e+00 3.000008e+00 -9.999935e-05 -3.314970e-01 0 -1.235538e-06 8.292034e-01 1.318232e+01 
-9.410831e-02 2.999996e+00 2.999996e+00 -9.999935e-05 3.200695e-01 0 9.208459e-07 8.292034e-01 1.318232e+01 
-6.279052e-02 3.000002e+00 3.000002e+00 -9.999935e-05 -3.093740e-01 0 -6.111562e-07 8.292034e-01 1.318232e+01 
-3.141076e-02 3.000000e+00 3.000000e+00 -9.999935e-05 2.993505e-01 0 3.047594e-07 8.292034e-01 1.318232e+01 
-1.110223e-16 3.000000e+00 3.000000e+00 -9.999935e-05 -2.899472e-01 0 1.750685e-13 8.292034e-01 1.318232e+01 
3.141076e-02 3.000000e+00 3.000000e+00 -9.999935e-05 2.811166e-01 0 -3.047590e-07 8.292034e-01 1.318232e+01 
6.279052e-02 3.000002e+00 3.000002e+00 -9.999935e-05 -2.728160e-01 0 6.111547e-07 8.292034e-01 1.318232e+01 
9.410831e-02 2.999996e+00 2.999996e+00 -9.999935e-05 2.650060e-01 0 -9.208444e-07 8.292034e-01 1.318232e+01 
1.253332e-01 3.000008e+00 3.000008e+00 -9.999935e-05 -2.576529e-01 0 1.235538e-06 8.292034e-01 1.318232e+01 
1.564345e-01 2.999987e+00 2.999987e+00 -9.999935e-05 2.507220e-01 0 -1.556979e-06 8.292034e-01 1.318232e+01 
1.873813e-01 3.000019e+00 3.000019e+00 -9.999935e-05 -2.441883e-01 0 1.887070e-06 8.292034e-01 1.318232e+01 
2.181432e-01 2.999974e+00 2.999974e+00 -9.999935e-05 2.380191e-01 0 -2.227709e-06 8.292034e-01 1.318232e+01 
2.486899e-01 3.000034e+00 3.000034e+00 -9.999935e-05 -2.321984e-01 0 2.581146e-06 8.292034e-01 1.318232e+01 
2.789911e-01 2.999957e+00 2.999956e+00 -9.999935e-05 2.266933e-01 0 -2.949484e-06 8.292034e-01 1.318232e+01 
3.090170e-01 3.000054e+00 3.000055e+00 -9.999935e-05 -2.214968e-01 0 3.335541e-06 8.292034e-01 1.318232e+01 
3.387379e-01 2.999933e+00 2.999933e+00 -9.999935e-05 2.165737e-01 0 -3.741681e-06 8.292034e-01 1.318232e+01 
3.681246e-01 3.000080e+00 3.000081e+00 -9.999935e-05 -2.119269e-01 0 4.171589e-06 8.292034e-01 1.318232e+01 
3.971479e-01 2.999904e+00 2.999904e+00 -9.999935e-05 2.075167e-01 0 -4.627954e-06 8.292034e-01 1.318232e+01 
4.257793e-01 3.000113e+00 3.000113e+00 -9.999935e-05 -2.033566e-01 0 5.115756e-06 8.292034e-01 1.318232e+01 
4.539905e-01 2.999868e+00 2.999868e+00 -9.999935e-05 1.994007e-01 0 -5.638087e-06 8.292034e-01 1.318232e+01 
4.817537e-01 3.000153e+00 3.000154e+00 -9.999935e-05 -1.956741e-01 0 6.201840e-06 8.292034e-01 1.318232e+01 
5.090414e-01 2.999823e+00 2.999823e+00 -9.999935e-05 1.921227e-01 0 -6.810630e-06 8.292034e-01 1.318232e+01 
5.358268e-01 3.000202e+00 3.000203e+00 -9.999935e-05 -1.887843e-01 0 7.474169e-06 8.292034e-01 1.318232e+01 
5.620834e-01 2.999769e+00 2.999769e+00 -9.999935e-05 1.855946e-01 0 -8.196778e-06 8.292034e-01 1.318232e+01 
5.877853e-01 3.000262e+00 3.000263e+00 -9.999935e-05 -1.826059e-01 0 8.992353e-06 8.292034e-01 1.318232e+01 
6.129071e-01 2.999703e+00 2.999702e+00 -9.999935e-05 1.797412e-01 0 -9.866229e-06 8.292034e-01 1.318232e+01 
6.374240e-01 3.000336e+00 3.000336e+00 -9.999935e-05 -1.770694e-01 0 1.083859e-05 8.292034e-01 1.318232e+01 
6.613119e-01 2.999622e+00 2.999621e+00 -9.999935e-05 1.744980e-01 0 -1.191632e-05 8.292034e-01 1.318232e+01 
6.845471e-01 3.000426e+00 3.000426e+00 -9.999935e-05 -1.721152e-01 0 1.312923e-05 8.292034e-01 1.318232e+01 
7.071068e-01 2.999522e+00 2.999521e+00 -9.999935e-05 1.698095e-01 0 -1.448675e-05 8.292034e-01 1.318232e+01 
7.289686e-01 3.000537e+00 3.000538e+00 -9.999935e-05 -1.676919e-01 0 1.603374e-05 8.292034e-01 1.318232e+01 
7.501111e-01 2.999397e+00 2.999396e+00 -9.999935e-05 1.656277e-01 0 -1.778408e-05 8.292034e-01 1.318232e+01 
7.705132e-01 3.000678e+00 3.000678e+00 -9.999935e-05 -1.637555e-01 0 1.980696e-05 8.292034e-01 1.318232e+01 
7.901550e-01 2.999238e+00 2.999238e+00 -9.999935e-05 1.619113e-01 0 -2.212442e-05 8.292034e-01 1.318232e+01 
8.090170e-01 3.000857e+00 3.000857e+00 -9.999935e-05 -1.602679e-01 0 2.484645e-05 8.292034e-01 1.318232e+01 
8.270806e-01 2.999035e+00 2.999034e+00 -9.999935e-05 1.586243e-01 0 -2.801106e-05 8.292034e-01 1.318232e+01 
8.443279e-01 3.001090e+00 3.001090e+00 -9.999935e-05 -1.571963e-01 0 3.179990e-05 8.292034e-01 1.318232e+01 
8.607420e-01 2.998767e+00 2.998766e+00 -9.999935e-05 1.557353e-01 0 -3.628418e-05 8.292034e-01 1.318232e+01 
8.763067e-01 3.001401e+00 3.001401e+00 -9.999935e-05 -1.545124e-01 0 4.177908e-05 8.292034e-01 1.318232e+01 
8.910065e-01 2.998403e+00 2.998402e+00 -9.999935e-05 1.532160e-01 0 -4.842977e-05 8.292034e-01 1.318232e+01 
9.048271e-01 3.001830e+00 3.001831e+00 -9.999935e-05 -1.521916e-01 0 5.681963e-05 8.292034e-01 1.318232e+01 
9.177546e-01 2.997890e+00 2.997889e+00 -9.999935e-05 1.510406e-01 0 -6.727309e-05 8.292034e-01 1.318232e+01 
9.297765e-01 3.002451e+00 3.002452e+00 -9.999935e-05 -1.502118e-01 0 8.096748e-05 8.292034e-01 1.318232e+01 
9.408808e-01 2.997128e+00 2.997127e+00 -9.999935e-05 1.491824e-01 0 -9.871212e-05 8.292034e-01 1.318232e+01 
9.510565e-01 3.003402e+00 3.003403e+00 -9.999935e-05 -1.485516e-01 0 1.231841e-04 8.292034e-01 1.318232e+01 
9.602937e-01 2.995915e+00 2.995914e+00 -9.999935e-05 1.476080e-01 0 -1.567147e-04 8.292034e-01 1.318232e+01 
9.685832e-01 3.004990e+00 3.004990e+00 -9.999935e-05 -1.471853e-01 0 2.065356e-04 8.292034e-01 1.318232e+01 
9.759168e-01 2.993771e+00 2.993770e+00 -9.999935e-05 1.462599e-01 0 -2.809092e-04 8.292034e-01 1.318232e+01 
9.822873e-01 3.008006e+00 3.008006e+00 -9.999935e-05 -1.460639e-01 0 4.053287e-04 8.292034e-01 1.318232e+01 
9.876883e-01 2.989292e+00 2.989291e+00 -9.999935e-05 1.449850e-01 0 -6.206444e-04 8.292034e-01 1.318232e+01 
9.921147e-01 3.015180e+00 3.015181e+00 -9.999935e-05 -1.450090e-01 0 1.069453e-03 8.292034e-01 1.318232e+01 
9.955620e-01 2.976411e+00 2.976410e+00 -9.999935e-05 1.430816e-01 0 -2.132654e-03 8.292034e-01 1.318232e+01 
9.980267e-01 3.043327e+00 3.043329e+00 -9.999935e-05 -1.422193e-01 0 6.014550e-03 8.292034e-01 1.318232e+01 
9.995066e-01 2.878928e+00 2.878922e+00 -9.999935e-05 1.402595e-01 0 -3.515640e-02 8.292034e-01 1.318232e+01 
1 2.323671e+00 2.323642e+00 -9.999935e-05 -1.931901e-01 0 -7.389465e-02 8.292034e-01 1.318232e+01 
ZONE T="1.2783e-09", I=101
-1 2.077918e+00 2.084845e+00 -1.000603e-04 2.691639e+03 0 -1.242463e+01 1.387028e+00 1.318152e+01 
-9.995066e-01 2.833161e+00 2.833820e+00 -1.000600e-04 1.005932e+03 0 -6.866505e+00 1.387028e+00 1.318152e+01 
-9.980267e-01 3.058574e+00 3.058041e+00 -1.000600e-04 -2.652697e+02 0 1.554842e+00 1.387028e+00 1.318152e+01 
-9.955620e-01 2.968095e+00 2.968405e+00 -1.000599e-04 1.154111e+02 0 -5.446061e-01 1.387028e+00 1.318152e+01 
-9.921147e-01 3.020548e+00 3.020345e+00 -1.000598e-04 -6.578118e+01 0 2.762456e-01 1.387028e+00 1.318152e+01 
-9.876883e-01 2.985497e+00 2.985641e+00 -1.000597e-04 4.177409e+01 0 -1.601543e-01 1.387028e+00 1.318152e+01 
-9.822873e-01 3.010847e+00 3.010739e+00 -1.000595e-04 -2.921396e+01 0 1.058210e-01 1.387028e+00 1.318152e+01 
-9.759168e-01 2.991558e+00 2.991642e+00 -1.000593e-04 2.138551e+01 0 -7.364962e-02 1.387028e+00 1.318152e+01 
-9.685832e-01 3.006764e+00 3.006696e+00 -1.000591e-04 -1.645378e+01 0 5.475516e-02 1.387028e+00 1.318152e+01 
-9.602937e-01 2.994461e+00 2.994516e+00 -1.000589e-04 1.297967e+01 0 -4.181043e-02 1.387028e+00 1.318152e+01 
-9.510565e-01 3.004614e+00 3.004567e+00 -1.000586e-04 -1.055586e+01 0 3.322028e-02 1.387028e+00 1.318152e+01 
-9.408808e-01 2.996105e+00 2.996144e+00 -1.000583e-04 8.720793e+00 0 -2.682432e-02 1.387028e+00 1.318152e+01 
-9.297765e-01 3.003325e+00 3.003291e+00 -1.000580e-04 -7.354620e+00 0 2.224141e-02 1.387028e+00 1.318152e+01 
-9.177546e-01 2.997137e+00 2.997166e+00 -1.000576e-04 6.270087e+00 0 -1.864237e-02 1.387028e+00 1.318152e+01 
-9.048271e-01 3.002483e+00 3.002458e+00 -1.000573e-04 -5.425418e+00 0 1.592309e-02 1.387028e+00 1.318152e+01 
-8.910065e-01 2.997833e+00 2.997855e+00 -1.000569e-04 4.732072e+00 0 -1.370788e-02 1.387028e+00 1.318152e+01 
-8.763067e-01 3.001901e+00 3.001881e+00 -1.000564e-04 -4.173815e+00 0 1.196738e-02 1.387028e+00 1.318152e+01 
-8.607420e-01 2.998326e+00 2.998344e+00 -1.000560e-04 3.704066e+00 0 -1.051154e-02 1.387028e+00 1.318152e+01 
-8.443279e-01 3.001479e+00 3.001463e+00 -1.000555e-04 -3.316038e+00 0 9.332487e-03 1.387028e+00 1.318152e+01 
-8.270806e-01 2.998690e+00 2.998704e+00 -1.000550e-04 2.983246e+00 0 -8.326682e-03 1.387028e+00 1.318152e+01 
-8.090170e-01 3.001163e+00 3.001150e+00 -1.000545e-04 -2.702702e+00 0 7.492000e-03 1.387028e+00 1.318152e+01 
-7.901550e-01 2.998966e+00 2.998977e+00 -1.000539e-04 2.458441e+00 0 -6.769257e-03 1.387028e+00 1.318152e+01 
-7.705132e-01 3.000920e+00 3.000910e+00 -1.000533e-04 -2.249088e+00 0 6.157202e-03 1.387028e+00 1.318152e+01 
-7.501111e-01 2.999180e+00 2.999190e+00 -1.000528e-04 2.064577e+00 0 -5.621139e-03 1.387028e+00 1.318152e+01 
-7.289686e-01 3.000730e+00 3.000722e+00 -1.000521e-04 -1.904239e+00 0 5.159251e-03 1.387028e+00 1.318152e+01 
-7.071068e-01 2.999350e+00 2.999358e+00 -1.000515e-04 1.761505e+00 0 -4.751155e-03 1.387028e+00 1.318152e+01 
-6.845471e-01 3.000578e+00 3.000571e+00 -1.000508e-04 -1.636018e+00 0 4.394165e-03 1.387028e+00 1.318152e+01 
-6.613119e-01 2.999486e+00 2.999492e+00 -1.000502e-04 1.523370e+00 0 -4.076657e-03 1.387028e+00 1.318152e+01 
-6.374240e-01 3.000456e+00 3.000450e+00 -1.000495e-04 -1.423339e+00 0 3.795125e-03 1.387028e+00 1.318152e+01 
-6.129071e-01 2.999596e+00 2.999601e+00 -1.000488e-04 1.332906e+00 0 -3.543511e-03 1.387028e+00 1.318152e+01 
-5.877853e-01 3.000357e+00 3.000352e+00 -1.000480e-04 -1.251905e+00 0 3.317635e-03 1.387028e+00 1.318152e+01 
-5.620834e-01 2.999686e+00 2.999690e+00 -1.000473e-04 1.178232e+00 0 -3.115082e-03 1.387028e+00 1.318152e+01 
-5.358268e-01 3.000275e+00 3.000271e+00 -1.000465e-04 -1.111743e+00 0 2.931150e-03 1.387028e+00 1.318152e+01 
-5.090414e-01 2.999760e+00 2.999763e+00 -1.000457e-04 1.050953e+00 0 -2.765870e-03 1.387028e+00 1.318152e+01 
-4.817537e-01 3.000208e+00 3.000205e+00 -1.000449e-04 -9.957249e-01 0 2.614152e-03 1.387028e+00 1.318152e+01 
-4.539905e-01 2.999820e+00 2.999823e+00 -1.000441e-04 9.450019e-01 0 -2.477696e-03 1.387028e+00 1.318152e+01 
-4.257793e-01 3.000154e+00 3.000151e+00 -1.000433e-04 -8.986474e-01 0 2.351130e-03 1.387028e+00 1.318152e+01 
-3.971479e-01 2.999870e+00 2.999872e+00 -1.000425e-04 8.559052e-01 0 -2.237318e-03 1.387028e+00 1.318152e+01 
-3.681246e-01 3.000109e+00 3.000107e+00 -1.000416e-04 -8.166395e-01 0 2.130684e-03 1.387028e+00 1.318152e+01 
-3.387379e-01 2.999909e+00 2.999911e+00 -1.000408e-04 7.803068e-01 0 -2.034911e-03 1.387028e+00 1.318152e+01 
-3.090170e-01 3.000074e+00 3.000072e+00 -1.000399e-04 -7.467740e-01 0 1.944286e-03 1.387028e+00 1.318152e+01 
-2.789911e-01 2.999941e+00 2.999942e+00 -1.000390e-04 7.156490e-01 0 -1.863067e-03 1.387028e+00 1.318152e+01 
-2.486899e-01 3.000046e+00 3.000045e+00 -1.000381e-04 -6.868040e-01 0 1.785455e-03 1.387028e+00 1.318152e+01 
-2.181432e-01 2.999965e+00 2.999966e+00 -1.000373e-04 6.599552e-01 0 -1.716116e-03 1.387028e+00 1.318152e+01 
-1.873813e-01 3.000025e+00 3.000024e+00 -1.000364e-04 -6.349820e-01 0 1.649200e-03 1.387028e+00 1.318152e+01 
-1.564345e-01 2.999983e+00 2.999984e+00 -1.000355e-04 6.116782e-01 0 -1.589660e-03 1.387028e+00 1.318152e+01 
-1.253332e-01 3.000010e+00 3.000010e+00 -1.000345e-04 -5.899326e-01 0 1.531629e-03 1.387028e+00 1.318152e+01 
-9.410831e-02 2.999995e+00 2.999995e+00 -1.000336e-04 5.695935e-01 0 -1.480254e-03 1.387028e+00 1.318152e+01 
-6.279052e-02 3.000001e+00 3.000001e+00 -1.000327e-04 -5.505613e-01 0 1.429673e-03 1.387028e+00 1.318152e+01 
-3.141076e-02 3.000001e+00 3.000001e+00 -1.000318e-04 5.327217e-01 0 -1.385166e-03 1.387028e+00 1.318152e+01 
-1.110223e-16 2.999998e+00 2.999998e+00 -1.000309e-04 -5.159888e-01 0 1.340894e-03 1.387028e+00 1.318152e+01 
3.141076e-02 3.000001e+00 3.000001e+00 -1.000300e-04 5.002723e-01 0 -1.302215e-03 1.387028e+00 1.318152e+01 
6.279052e-02 3.000001e+00 3.000001e+00 -1.000291e-04 -4.855018e-01 0 1.263333e-03 1.387028e+00 1.318152e+01 
9.410831e-02 2.999996e+00 2.999995e+00 -1.000282e-04 4.716014e-01 0 -1.229646e-03 1.387028e+00 1.318152e+01 
1.253332e-01 3.000009e+00 3.000010e+00 -1.000272e-04 -4.585177e-01 0 1.195411e-03 1.387028e+00 1.318152e+01 
1.564345e-01 2.999984e+00 2.999984e+00 -1.000263e-04 4.461807e-01 0 -1.166037e-03 1.387028e+00 1.318152e+01 
1.873813e-01 3.000024e+00 3.000024e+00 -1.000254e-04 -4.345564e-01 0 1.135848e-03 1.387028e+00 1.318152e+01 
2.181432e-01 2.999967e+00 2.999966e+00 -1.000246e-04 4.235737e-01 0 -1.110235e-03 1.387028e+00 1.318152e+01 
2.486899e-01 3.000044e+00 3.000045e+00 -1.000237e-04 -4.132200e-01 0 1.083605e-03 1.387028e+00 1.318152e+01 
2.789911e-01 2.999943e+00 2.999942e+00 -1.000228e-04 4.034171e-01 0 -1.061304e-03 1.387028e+00 1.318152e+01 
3.090170e-01 3.000072e+00 3.000072e+00 -1.000219e-04 -3.941762e-01 0 1.037838e-03 1.387028e+00 1.318152e+01 
3.387379e-01 2.999912e+00 2.999911e+00 -1.000210e-04 3.854070e-01 0 -1.018486e-03 1.387028e+00 1.318152e+01 
3.681246e-01 3.000107e+00 3.000107e+00 -1.000202e-04 -3.771467e-01 0 9.978686e-04 1.387028e+00 1.318152e+01 
3.971479e-01 2.999873e+00 2.999872e+00 -1.000193e-04 3.692876e-01 0 -9.811769e-04 1.387028e+00 1.318152e+01 
4.257793e-01 3.000150e+00 3.000151e+00 -1.000185e-04 -3.618963e-01 0 9.631608e-04 1.387028e+00 1.318152e+01 
4.539905e-01 2.999824e+00 2.999823e+00 -1.000177e-04 3.548426e-01 0 -9.489027e-04 1.387028e+00 1.318152e+01 
4.817537e-01 3.000204e+00 3.000205e+00 -1.000169e-04 -3.482261e-01 0 9.333044e-04 1.387028e+00 1.318152e+01 
5.090414e-01 2.999764e+00 2.999763e+00 -1.000161e-04 3.418885e-01 0 -9.213127e-04 1.387028e+00 1.318152e+01 
5.358268e-01 3.000270e+00 3.000271e+00 -1.000153e-04 -3.359668e-01 0 9.080086e-04 1.387028e+00 1.318152e+01 