TITLE = "2 species of PNP-Steric with high order term" 
VARIABLES = "X" "Conc1" "Conc2" "phi" "Current_x""I_ext" "I_PNP" "CURRENT" "ENERGY" "
ZONE T="1.063e-06", I=21
-1 1.470821e+00 1.470751e+00 -1.000000e-04 -4.263256e-14 0 -1.332268e-13 -2.854215e-14 1.318335e+01 
-9.825723e-01 3 3 -1.000000e-04 -2.970957e-13 0 5.495604e-14 -2.854215e-14 1.318335e+01 
-9.419763e-01 3 3 -1.000000e-04 -2.704503e-13 0 4.862777e-14 -2.854215e-14 1.318335e+01 
-8.792948e-01 3 3 -1.000000e-04 -3.996803e-15 0 -5.329071e-15 -2.854215e-14 1.318335e+01 
-7.960019e-01 3 3 -1.000000e-04 9.325873e-15 0 2.764455e-14 -2.854215e-14 1.318335e+01 
-6.940510e-01 3 3 -1.000000e-04 -5.195844e-14 0 3.630429e-14 -2.854215e-14 1.318335e+01 
-5.758320e-01 3 3 -1.000000e-04 2.131628e-14 0 2.231548e-14 -2.854215e-14 1.318335e+01 
-4.441158e-01 3 3 -1.000000e-04 1.731948e-14 0 -3.330669e-15 -2.854215e-14 1.318335e+01 
-3.019899e-01 3 3 -1.000000e-04 -3.597123e-14 0 -1.731948e-14 -2.854215e-14 1.318335e+01 
-1.527855e-01 3 3 -1.000000e-04 -6.394885e-14 0 -4.996004e-15 -2.854215e-14 1.318335e+01 
0 3 3 -1.000000e-04 -3.996803e-15 0 -3.663736e-15 -2.854215e-14 1.318335e+01 
1.527855e-01 3 3 -1.000000e-04 2.531308e-14 0 -1.465494e-14 -2.854215e-14 1.318335e+01 
3.019899e-01 3 3 -1.000000e-04 2.398082e-14 0 1.332268e-14 -2.854215e-14 1.318335e+01 
4.441158e-01 3 3 -1.000000e-04 -3.730349e-14 0 -1.998401e-15 -2.854215e-14 1.318335e+01 
5.758320e-01 3 3 -1.000000e-04 3.730349e-14 0 -3.330669e-15 -2.854215e-14 1.318335e+01 
6.940510e-01 3 3 -1.000000e-04 1.225686e-13 0 -2.398082e-14 -2.854215e-14 1.318335e+01 
7.960019e-01 3 3 -1.000000e-04 0 0 7.993606e-15 -2.854215e-14 1.318335e+01 
8.792948e-01 3 3 -1.000000e-04 -1.278977e-13 0 4.263256e-14 -2.854215e-14 1.318335e+01 
9.419763e-01 3 3 -1.000000e-04 4.263256e-14 0 0 -2.854215e-14 1.318335e+01 
9.825723e-01 3 3 -1.000000e-04 0 0 8.526513e-14 -2.854215e-14 1.318335e+01 
1 1.470821e+00 1.470751e+00 -1.000000e-04 -6.821210e-13 0 -1.705303e-13 -2.854215e-14 1.318335e+01 
ZONE T="2.1261e-06", I=21
-1 1.049104e+00 1.049027e+00 -9.330287e-05 -5.002081e-02 -5.428191e-02 4.261104e-03 -2.595336e-15 1.313138e+01 
-9.825723e-01 2.981762e+00 2.981762e+00 -9.330287e-05 4.651841e-03 -1.938637e-03 6.590478e-03 -2.595336e-15 1.313138e+01 
-9.419763e-01 2.998582e+00 2.998582e+00 -9.330287e-05 -1.026013e-03 4.275871e-04 -1.453601e-03 -2.595336e-15 1.313138e+01 
-8.792948e-01 3.001115e+00 3.001115e+00 -9.330287e-05 4.001722e-04 -1.667702e-04 5.669425e-04 -2.595336e-15 1.313138e+01 
-7.960019e-01 2.999279e+00 2.999279e+00 -9.330287e-05 -1.991049e-04 8.297620e-05 -2.820811e-04 -2.595336e-15 1.313138e+01 
-6.940510e-01 3.000501e+00 3.000501e+00 -9.330287e-05 1.125666e-04 -4.691168e-05 1.594782e-04 -2.595336e-15 1.313138e+01 
-5.758320e-01 2.999623e+00 2.999623e+00 -9.330287e-05 -6.796835e-05 2.832555e-05 -9.629390e-05 -2.595336e-15 1.313138e+01 
-4.441158e-01 3.000306e+00 3.000306e+00 -9.330287e-05 4.169964e-05 -1.737816e-05 5.907781e-05 -2.595336e-15 1.313138e+01 
-3.019899e-01 2.999735e+00 2.999735e+00 -9.330287e-05 -2.428303e-05 1.011986e-05 -3.440288e-05 -2.595336e-15 1.313138e+01 
-1.527855e-01 3.000244e+00 3.000244e+00 -9.330287e-05 1.122837e-05 -4.679380e-06 1.590775e-05 -2.595336e-15 1.313138e+01 
0 2.999763e+00 2.999763e+00 -9.330287e-05 2.531308e-14 3.996803e-15 6.161738e-15 -2.595336e-15 1.313138e+01 
1.527855e-01 3.000244e+00 3.000244e+00 -9.330287e-05 -1.122837e-05 4.679380e-06 -1.590775e-05 -2.595336e-15 1.313138e+01 
3.019899e-01 2.999735e+00 2.999735e+00 -9.330287e-05 2.428303e-05 -1.011986e-05 3.440288e-05 -2.595336e-15 1.313138e+01 
4.441158e-01 3.000306e+00 3.000306e+00 -9.330287e-05 -4.169964e-05 1.737816e-05 -5.907781e-05 -2.595336e-15 1.313138e+01 
5.758320e-01 2.999623e+00 2.999623e+00 -9.330287e-05 6.796835e-05 -2.832555e-05 9.629390e-05 -2.595336e-15 1.313138e+01 
6.940510e-01 3.000501e+00 3.000501e+00 -9.330287e-05 -1.125666e-04 4.691168e-05 -1.594782e-04 -2.595336e-15 1.313138e+01 
7.960019e-01 2.999279e+00 2.999279e+00 -9.330287e-05 1.991049e-04 -8.297620e-05 2.820811e-04 -2.595336e-15 1.313138e+01 
8.792948e-01 3.001115e+00 3.001115e+00 -9.330287e-05 -4.001722e-04 1.667702e-04 -5.669425e-04 -2.595336e-15 1.313138e+01 
9.419763e-01 2.998582e+00 2.998582e+00 -9.330287e-05 1.026013e-03 -4.275871e-04 1.453601e-03 -2.595336e-15 1.313138e+01 
9.825723e-01 2.981762e+00 2.981762e+00 -9.330287e-05 -4.651841e-03 1.938637e-03 -6.590478e-03 -2.595336e-15 1.313138e+01 
1 1.049104e+00 1.049027e+00 -9.330287e-05 5.002081e-02 5.428191e-02 -4.261104e-03 -2.595336e-15 1.313138e+01 
ZONE T="3.1891e-06", I=21
-1 8.386436e-01 8.385670e-01 -9.233546e-05 -7.332906e-02 -7.270029e-02 -6.287686e-04 4.687873e-15 1.311682e+01 
-9.825723e-01 2.964044e+00 2.964045e+00 -9.233575e-05 8.124096e-03 -1.990992e-03 1.011509e-02 4.687873e-15 1.311682e+01 
-9.419763e-01 2.995365e+00 2.995364e+00 -9.233549e-05 -1.767905e-03 4.877725e-04 -2.255677e-03 4.687873e-15 1.311682e+01 
-8.792948e-01 3.003103e+00 3.003103e+00 -9.233570e-05 6.967035e-04 -1.877718e-04 8.844754e-04 4.687873e-15 1.311682e+01 
-7.960019e-01 2.998049e+00 2.998049e+00 -9.233552e-05 -3.453621e-04 9.476863e-05 -4.401307e-04 4.687873e-15 1.311682e+01 
-6.940510e-01 3.001342e+00 3.001342e+00 -9.233568e-05 1.958406e-04 -5.334648e-05 2.491871e-04 4.687873e-15 1.311682e+01 
-5.758320e-01 2.998993e+00 2.998993e+00 -9.233553e-05 -1.180545e-04 3.238075e-05 -1.504353e-04 4.687873e-15 1.311682e+01 
-4.441158e-01 3.000815e+00 3.000815e+00 -9.233567e-05 7.253775e-05 -1.981413e-05 9.235187e-05 4.687873e-15 1.311682e+01 
-3.019899e-01 2.999295e+00 2.999295e+00 -9.233554e-05 -4.219475e-05 1.157300e-05 -5.376776e-05 4.687873e-15 1.311682e+01 
-1.527855e-01 3.000648e+00 3.000648e+00 -9.233567e-05 1.953137e-05 -5.339777e-06 2.487114e-05 4.687873e-15 1.311682e+01 
0 2.999370e+00 2.999370e+00 -9.233554e-05 -2.930757e-14 -9.991217e-16 -8.825575e-15 4.687873e-15 1.311682e+01 
1.527855e-01 3.000648e+00 3.000648e+00 -9.233567e-05 -1.953137e-05 5.339777e-06 -2.487114e-05 4.687873e-15 1.311682e+01 
3.019899e-01 2.999295e+00 2.999295e+00 -9.233554e-05 4.219475e-05 -1.157300e-05 5.376776e-05 4.687873e-15 1.311682e+01 
4.441158e-01 3.000815e+00 3.000815e+00 -9.233567e-05 -7.253775e-05 1.981413e-05 -9.235187e-05 4.687873e-15 1.311682e+01 
5.758320e-01 2.998993e+00 2.998993e+00 -9.233553e-05 1.180545e-04 -3.238075e-05 1.504353e-04 4.687873e-15 1.311682e+01 
6.940510e-01 3.001342e+00 3.001342e+00 -9.233568e-05 -1.958406e-04 5.334648e-05 -2.491871e-04 4.687873e-15 1.311682e+01 
7.960019e-01 2.998049e+00 2.998049e+00 -9.233552e-05 3.453621e-04 -9.476863e-05 4.401307e-04 4.687873e-15 1.311682e+01 
8.792948e-01 3.003103e+00 3.003103e+00 -9.233570e-05 -6.967035e-04 1.877718e-04 -8.844754e-04 4.687873e-15 1.311682e+01 
9.419763e-01 2.995365e+00 2.995364e+00 -9.233549e-05 1.767905e-03 -4.877725e-04 2.255677e-03 4.687873e-15 1.311682e+01 
9.825723e-01 2.964044e+00 2.964045e+00 -9.233575e-05 -8.124096e-03 1.990992e-03 -1.011509e-02 4.687873e-15 1.311682e+01 
1 8.386436e-01 8.385670e-01 -9.233546e-05 7.332906e-02 7.270029e-02 6.287686e-04 4.687873e-15 1.311682e+01 
ZONE T="4.2521e-06", I=21
-1 7.172264e-01 7.171530e-01 -9.197102e-05 -8.205682e-02 -7.800519e-02 -4.051635e-03 -1.646697e-14 1.310802e+01 
-9.825723e-01 2.947541e+00 2.947543e+00 -9.197172e-05 1.073253e-02 -1.736609e-03 1.246914e-02 -1.646697e-14 1.310802e+01 
-9.419763e-01 2.991013e+00 2.991013e+00 -9.197107e-05 -2.295214e-03 5.093977e-04 -2.804612e-03 -1.646697e-14 1.310802e+01 
-8.792948e-01 3.005612e+00 3.005613e+00 -9.197158e-05 9.156165e-04 -1.917310e-04 1.107347e-03 -1.646697e-14 1.310802e+01 
-7.960019e-01 2.996515e+00 2.996515e+00 -9.197114e-05 -4.517155e-04 9.903660e-05 -5.507521e-04 -1.646697e-14 1.310802e+01 
-6.940510e-01 3.002386e+00 3.002386e+00 -9.197154e-05 2.570849e-04 -5.532555e-05 3.124104e-04 -1.646697e-14 1.310802e+01 
-5.758320e-01 2.998213e+00 2.998213e+00 -9.197117e-05 -1.546441e-04 3.387355e-05 -1.885176e-04 -1.646697e-14 1.310802e+01 
-4.441158e-01 3.001444e+00 3.001444e+00 -9.197152e-05 9.519750e-05 -2.063387e-05 1.158314e-04 -1.646697e-14 1.310802e+01 
-3.019899e-01 2.998751e+00 2.998751e+00 -9.197118e-05 -5.529842e-05 1.211195e-05 -6.741037e-05 -1.646697e-14 1.310802e+01 
-1.527855e-01 3.001147e+00 3.001147e+00 -9.197151e-05 2.563081e-05 -5.567935e-06 3.119875e-05 -1.646697e-14 1.310802e+01 
0 2.998885e+00 2.998885e+00 -9.197119e-05 -1.232089e-14 4.695257e-14 -2.181130e-14 -1.646697e-14 1.310802e+01 
1.527855e-01 3.001147e+00 3.001147e+00 -9.197151e-05 -2.563081e-05 5.567935e-06 -3.119875e-05 -1.646697e-14 1.310802e+01 
3.019899e-01 2.998751e+00 2.998751e+00 -9.197118e-05 5.529842e-05 -1.211195e-05 6.741037e-05 -1.646697e-14 1.310802e+01 
4.441158e-01 3.001444e+00 3.001444e+00 -9.197152e-05 -9.519750e-05 2.063387e-05 -1.158314e-04 -1.646697e-14 1.310802e+01 
5.758320e-01 2.998213e+00 2.998213e+00 -9.197117e-05 1.546441e-04 -3.387355e-05 1.885176e-04 -1.646697e-14 1.310802e+01 
6.940510e-01 3.002386e+00 3.002386e+00 -9.197154e-05 -2.570849e-04 5.532555e-05 -3.124104e-04 -1.646697e-14 1.310802e+01 
7.960019e-01 2.996515e+00 2.996515e+00 -9.197114e-05 4.517155e-04 -9.903660e-05 5.507521e-04 -1.646697e-14 1.310802e+01 
8.792948e-01 3.005612e+00 3.005613e+00 -9.197158e-05 -9.156165e-04 1.917310e-04 -1.107347e-03 -1.646697e-14 1.310802e+01 
9.419763e-01 2.991013e+00 2.991013e+00 -9.197107e-05 2.295214e-03 -5.093977e-04 2.804612e-03 -1.646697e-14 1.310802e+01 
9.825723e-01 2.947541e+00 2.947543e+00 -9.197172e-05 -1.073253e-02 1.736609e-03 -1.246914e-02 -1.646697e-14 1.310802e+01 
1 7.172264e-01 7.171530e-01 -9.197102e-05 8.205682e-02 7.800519e-02 4.051635e-03 -1.646697e-14 1.310802e+01 
ZONE T="5.3152e-06", I=21
-1 6.418551e-01 6.417853e-01 -9.175328e-05 -8.420065e-02 -7.805197e-02 -6.148687e-03 -9.016171e-15 1.310126e+01 
-9.825723e-01 2.932065e+00 2.932069e+00 -9.175442e-05 1.257068e-02 -1.383698e-03 1.395438e-02 -9.016171e-15 1.310126e+01 
-9.419763e-01 2.985945e+00 2.985944e+00 -9.175330e-05 -2.639099e-03 5.209481e-04 -3.160047e-03 -9.016171e-15 1.310126e+01 
-8.792948e-01 3.008435e+00 3.008435e+00 -9.175418e-05 1.066588e-03 -1.909173e-04 1.257505e-03 -9.016171e-15 1.310126e+01 
-7.960019e-01 2.994798e+00 2.994798e+00 -9.175342e-05 -5.234295e-04 1.014446e-04 -6.248742e-04 -9.016171e-15 1.310126e+01 
-6.940510e-01 3.003553e+00 3.003553e+00 -9.175410e-05 2.990899e-04 -5.613979e-05 3.552297e-04 -9.016171e-15 1.310126e+01 
-5.758320e-01 2.997342e+00 2.997342e+00 -9.175347e-05 -1.794857e-04 3.473696e-05 -2.142226e-04 -9.016171e-15 1.310126e+01 
-4.441158e-01 3.002148e+00 3.002148e+00 -9.175407e-05 1.107177e-04 -2.104149e-05 1.317592e-04 -9.016171e-15 1.310126e+01 
-3.019899e-01 2.998144e+00 2.998144e+00 -9.175349e-05 -6.421361e-05 1.242683e-05 -7.664044e-05 -9.016171e-15 1.310126e+01 
-1.527855e-01 3.001705e+00 3.001705e+00 -9.175406e-05 2.980677e-05 -5.686819e-06 3.549359e-05 -9.016171e-15 1.310126e+01 
0 2.998343e+00 2.998342e+00 -9.175350e-05 1.298478e-14 1.132007e-14 -9.655350e-15 -9.016171e-15 1.310126e+01 
1.527855e-01 3.001705e+00 3.001705e+00 -9.175406e-05 -2.980677e-05 5.686819e-06 -3.549359e-05 -9.016171e-15 1.310126e+01 
3.019899e-01 2.998144e+00 2.998144e+00 -9.175349e-05 6.421361e-05 -1.242683e-05 7.664044e-05 -9.016171e-15 1.310126e+01 
4.441158e-01 3.002148e+00 3.002148e+00 -9.175407e-05 -1.107177e-04 2.104149e-05 -1.317592e-04 -9.016171e-15 1.310126e+01 
5.758320e-01 2.997342e+00 2.997342e+00 -9.175347e-05 1.794857e-04 -3.473696e-05 2.142226e-04 -9.016171e-15 1.310126e+01 
6.940510e-01 3.003553e+00 3.003553e+00 -9.175410e-05 -2.990899e-04 5.613979e-05 -3.552297e-04 -9.016171e-15 1.310126e+01 
7.960019e-01 2.994798e+00 2.994798e+00 -9.175342e-05 5.234295e-04 -1.014446e-04 6.248742e-04 -9.016171e-15 1.310126e+01 
8.792948e-01 3.008435e+00 3.008435e+00 -9.175418e-05 -1.066588e-03 1.909173e-04 -1.257505e-03 -9.016171e-15 1.310126e+01 
9.419763e-01 2.985945e+00 2.985944e+00 -9.175330e-05 2.639099e-03 -5.209481e-04 3.160047e-03 -9.016171e-15 1.310126e+01 
9.825723e-01 2.932065e+00 2.932069e+00 -9.175442e-05 -1.257068e-02 1.383698e-03 -1.395438e-02 -9.016171e-15 1.310126e+01 
1 6.418551e-01 6.417853e-01 -9.175328e-05 8.420065e-02 7.805197e-02 6.148687e-03 -9.016171e-15 1.310126e+01 
ZONE T="6.3782e-06", I=21
-1 5.929040e-01 5.928378e-01 -9.156484e-05 -8.323581e-02 -7.590491e-02 -7.330903e-03 5.631487e-14 1.309542e+01 
-9.825723e-01 2.917377e+00 2.917381e+00 -9.156641e-05 1.377879e-02 -1.005587e-03 1.478438e-02 5.631487e-14 1.309542e+01 
-9.419763e-01 2.980423e+00 2.980421e+00 -9.156477e-05 -2.837844e-03 5.294977e-04 -3.367342e-03 5.631487e-14 1.309542e+01 
-8.792948e-01 3.011443e+00 3.011443e+00 -9.156605e-05 1.162679e-03 -1.888122e-04 1.351491e-03 5.631487e-14 1.309542e+01 
-7.960019e-01 2.992971e+00 2.992970e+00 -9.156494e-05 -5.673832e-04 1.034523e-04 -6.708356e-04 5.631487e-14 1.309542e+01 
-6.940510e-01 3.004795e+00 3.004795e+00 -9.156594e-05 3.255949e-04 -5.667201e-05 3.822669e-04 5.631487e-14 1.309542e+01 
-5.758320e-01 2.996414e+00 2.996414e+00 -9.156501e-05 -1.948918e-04 3.546957e-05 -2.303614e-04 5.631487e-14 1.309542e+01 
-4.441158e-01 3.002897e+00 3.002897e+00 -9.156589e-05 1.204888e-04 -2.135480e-05 1.418436e-04 5.631487e-14 1.309542e+01 
-3.019899e-01 2.997497e+00 2.997496e+00 -9.156505e-05 -6.976266e-05 1.269557e-05 -8.245823e-05 5.631487e-14 1.309542e+01 
-1.527855e-01 3.002299e+00 3.002299e+00 -9.156587e-05 3.243410e-05 -5.781225e-06 3.821532e-05 5.631487e-14 1.309542e+01 
0 2.997765e+00 2.997765e+00 -9.156506e-05 2.130450e-14 2.030586e-14 -2.013941e-14 5.631487e-14 1.309542e+01 
1.527855e-01 3.002299e+00 3.002299e+00 -9.156587e-05 -3.243410e-05 5.781225e-06 -3.821532e-05 5.631487e-14 1.309542e+01 
3.019899e-01 2.997497e+00 2.997496e+00 -9.156505e-05 6.976266e-05 -1.269557e-05 8.245823e-05 5.631487e-14 1.309542e+01 
4.441158e-01 3.002897e+00 3.002897e+00 -9.156589e-05 -1.204888e-04 2.135480e-05 -1.418436e-04 5.631487e-14 1.309542e+01 
5.758320e-01 2.996414e+00 2.996414e+00 -9.156501e-05 1.948918e-04 -3.546957e-05 2.303614e-04 5.631487e-14 1.309542e+01 
6.940510e-01 3.004795e+00 3.004795e+00 -9.156594e-05 -3.255949e-04 5.667201e-05 -3.822669e-04 5.631487e-14 1.309542e+01 
7.960019e-01 2.992971e+00 2.992970e+00 -9.156494e-05 5.673832e-04 -1.034523e-04 6.708356e-04 5.631487e-14 1.309542e+01 
8.792948e-01 3.011443e+00 3.011443e+00 -9.156605e-05 -1.162679e-03 1.888122e-04 -1.351491e-03 5.631487e-14 1.309542e+01 
9.419763e-01 2.980423e+00 2.980421e+00 -9.156477e-05 2.837844e-03 -5.294977e-04 3.367342e-03 5.631487e-14 1.309542e+01 
9.825723e-01 2.917377e+00 2.917381e+00 -9.156641e-05 -1.377879e-02 1.005587e-03 -1.478438e-02 5.631487e-14 1.309542e+01 
1 5.929040e-01 5.928378e-01 -9.156484e-05 8.323581e-02 7.590491e-02 7.330903e-03 5.631487e-14 1.309542e+01 
ZONE T="7.4413e-06", I=21
-1 5.600746e-01 5.600118e-01 -9.136823e-05 -8.085250e-02 -7.292871e-02 -7.923784e-03 2.043179e-15 1.309005e+01 
-9.825723e-01 2.903286e+00 2.903291e+00 -9.137020e-05 1.451562e-02 -6.329761e-04 1.514860e-02 2.043179e-15 1.309005e+01 
-9.419763e-01 2.974614e+00 2.974613e+00 -9.136804e-05 -2.931087e-03 5.372799e-04 -3.468367e-03 2.043179e-15 1.309005e+01 
-8.792948e-01 3.014555e+00 3.014556e+00 -9.136972e-05 1.218078e-03 -1.866957e-04 1.404774e-03 2.043179e-15 1.309005e+01 
-7.960019e-01 2.991079e+00 2.991079e+00 -9.136826e-05 -5.909078e-04 1.055308e-04 -6.964385e-04 2.043179e-15 1.309005e+01 
-6.940510e-01 3.006082e+00 3.006082e+00 -9.136958e-05 3.406383e-04 -5.722368e-05 3.978620e-04 2.043179e-15 1.309005e+01 
-5.758320e-01 2.995452e+00 2.995452e+00 -9.136836e-05 -2.033405e-04 3.623193e-05 -2.395725e-04 2.043179e-15 1.309005e+01 
-4.441158e-01 3.003674e+00 3.003674e+00 -9.136951e-05 1.260111e-04 -2.167969e-05 1.476907e-04 2.043179e-15 1.309005e+01 
-3.019899e-01 2.996825e+00 2.996825e+00 -9.136840e-05 -7.282821e-05 1.297537e-05 -8.580359e-05 2.043179e-15 1.309005e+01 
-1.527855e-01 3.002916e+00 3.002916e+00 -9.136948e-05 3.391704e-05 -5.879177e-06 3.979621e-05 2.043179e-15 1.309005e+01 
0 2.997165e+00 2.997165e+00 -9.136841e-05 -3.294906e-14 4.043748e-14 1.747298e-15 2.043179e-15 1.309005e+01 
1.527855e-01 3.002916e+00 3.002916e+00 -9.136948e-05 -3.391704e-05 5.879177e-06 -3.979621e-05 2.043179e-15 1.309005e+01 
3.019899e-01 2.996825e+00 2.996825e+00 -9.136840e-05 7.282821e-05 -1.297537e-05 8.580359e-05 2.043179e-15 1.309005e+01 
4.441158e-01 3.003674e+00 3.003674e+00 -9.136951e-05 -1.260111e-04 2.167969e-05 -1.476907e-04 2.043179e-15 1.309005e+01 
5.758320e-01 2.995452e+00 2.995452e+00 -9.136836e-05 2.033405e-04 -3.623193e-05 2.395725e-04 2.043179e-15 1.309005e+01 
6.940510e-01 3.006082e+00 3.006082e+00 -9.136958e-05 -3.406383e-04 5.722368e-05 -3.978620e-04 2.043179e-15 1.309005e+01 
7.960019e-01 2.991079e+00 2.991079e+00 -9.136826e-05 5.909078e-04 -1.055308e-04 6.964385e-04 2.043179e-15 1.309005e+01 
8.792948e-01 3.014555e+00 3.014556e+00 -9.136972e-05 -1.218078e-03 1.866957e-04 -1.404774e-03 2.043179e-15 1.309005e+01 
9.419763e-01 2.974614e+00 2.974613e+00 -9.136804e-05 2.931087e-03 -5.372799e-04 3.468367e-03 2.043179e-15 1.309005e+01 
9.825723e-01 2.903286e+00 2.903291e+00 -9.137020e-05 -1.451562e-02 6.329761e-04 -1.514860e-02 2.043179e-15 1.309005e+01 
1 5.600746e-01 5.600118e-01 -9.136823e-05 8.085250e-02 7.292871e-02 7.923784e-03 2.043179e-15 1.309005e+01 
ZONE T="8.5043e-06", I=21
-1 5.374764e-01 5.374165e-01 -9.115135e-05 -7.792299e-02 -6.976954e-02 -8.153451e-03 -1.981867e-15 1.308494e+01 
-9.825723e-01 2.889657e+00 2.889663e+00 -9.115370e-05 1.492726e-02 -2.788516e-04 1.520612e-02 -1.981867e-15 1.308494e+01 
-9.419763e-01 2.968631e+00 2.968629e+00 -9.115100e-05 -2.953830e-03 5.450589e-04 -3.498889e-03 -1.981867e-15 1.308494e+01 
-8.792948e-01 3.017719e+00 3.017720e+00 -9.115309e-05 1.245657e-03 -1.850801e-04 1.430737e-03 -1.981867e-15 1.308494e+01 
-7.960019e-01 2.989154e+00 2.989153e+00 -9.115128e-05 -6.005782e-04 1.078371e-04 -7.084153e-04 -1.981867e-15 1.308494e+01 
-6.940510e-01 3.007393e+00 3.007394e+00 -9.115291e-05 3.478699e-04 -5.790438e-05 4.057743e-04 -1.981867e-15 1.308494e+01 
-5.758320e-01 2.994471e+00 2.994471e+00 -9.115139e-05 -2.070609e-04 3.707705e-05 -2.441379e-04 -1.981867e-15 1.308494e+01 
-4.441158e-01 3.004467e+00 3.004468e+00 -9.115283e-05 1.286390e-04 -2.205319e-05 1.506922e-04 -1.981867e-15 1.308494e+01 
-3.019899e-01 2.996139e+00 2.996139e+00 -9.115145e-05 -7.420498e-05 1.328505e-05 -8.749003e-05 -1.981867e-15 1.308494e+01 
-1.527855e-01 3.003545e+00 3.003546e+00 -9.115280e-05 3.462055e-05 -5.990340e-06 4.061089e-05 -1.981867e-15 1.308494e+01 
0 2.996553e+00 2.996552e+00 -9.115146e-05 -2.129614e-14 6.272378e-14 1.638804e-14 -1.981867e-15 1.308494e+01 
1.527855e-01 3.003545e+00 3.003546e+00 -9.115280e-05 -3.462055e-05 5.990340e-06 -4.061089e-05 -1.981867e-15 1.308494e+01 
3.019899e-01 2.996139e+00 2.996139e+00 -9.115145e-05 7.420498e-05 -1.328505e-05 8.749003e-05 -1.981867e-15 1.308494e+01 
4.441158e-01 3.004467e+00 3.004468e+00 -9.115283e-05 -1.286390e-04 2.205319e-05 -1.506922e-04 -1.981867e-15 1.308494e+01 
5.758320e-01 2.994471e+00 2.994471e+00 -9.115139e-05 2.070609e-04 -3.707705e-05 2.441379e-04 -1.981867e-15 1.308494e+01 
6.940510e-01 3.007393e+00 3.007394e+00 -9.115291e-05 -3.478699e-04 5.790438e-05 -4.057743e-04 -1.981867e-15 1.308494e+01 
7.960019e-01 2.989154e+00 2.989153e+00 -9.115128e-05 6.005782e-04 -1.078371e-04 7.084153e-04 -1.981867e-15 1.308494e+01 
8.792948e-01 3.017719e+00 3.017720e+00 -9.115309e-05 -1.245657e-03 1.850801e-04 -1.430737e-03 -1.981867e-15 1.308494e+01 
9.419763e-01 2.968631e+00 2.968629e+00 -9.115100e-05 2.953830e-03 -5.450589e-04 3.498889e-03 -1.981867e-15 1.308494e+01 
9.825723e-01 2.889657e+00 2.889663e+00 -9.115370e-05 -1.492726e-02 2.788516e-04 -1.520612e-02 -1.981867e-15 1.308494e+01 
1 5.374764e-01 5.374165e-01 -9.115135e-05 7.792299e-02 6.976954e-02 8.153451e-03 -1.981867e-15 1.308494e+01 
ZONE T="9.5673e-06", I=21
-1 5.215431e-01 5.214857e-01 -9.091139e-05 -7.490322e-02 -6.673411e-02 -8.169106e-03 9.038451e-15 1.308001e+01 
-9.825723e-01 2.876394e+00 2.876401e+00 -9.091409e-05 1.513099e-02 5.209592e-05 1.507889e-02 9.038451e-15 1.308001e+01 
-9.419763e-01 2.962547e+00 2.962545e+00 -9.091085e-05 -2.933498e-03 5.530746e-04 -3.486573e-03 9.038451e-15 1.308001e+01 
-8.792948e-01 3.020899e+00 3.020900e+00 -9.091335e-05 1.255695e-03 -1.841561e-04 1.439851e-03 9.038451e-15 1.308001e+01 
-7.960019e-01 2.987215e+00 2.987214e+00 -9.091118e-05 -6.016018e-04 1.104122e-04 -7.120140e-04 9.038451e-15 1.308001e+01 
-6.940510e-01 3.008716e+00 3.008717e+00 -9.091313e-05 3.501957e-04 -5.874873e-05 4.089444e-04 9.038451e-15 1.308001e+01 
-5.758320e-01 2.993480e+00 2.993480e+00 -9.091132e-05 -2.078218e-04 3.801824e-05 -2.458401e-04 9.038451e-15 1.308001e+01 
-4.441158e-01 3.005269e+00 3.005269e+00 -9.091304e-05 1.294505e-04 -2.248607e-05 1.519365e-04 9.038451e-15 1.308001e+01 
-3.019899e-01 2.995446e+00 2.995446e+00 -9.091138e-05 -7.452397e-05 1.362924e-05 -8.815321e-05 9.038451e-15 1.308001e+01 
-1.527855e-01 3.004182e+00 3.004183e+00 -9.091299e-05 3.483497e-05 -6.117429e-06 4.095240e-05 9.038451e-15 1.308001e+01 
0 2.995933e+00 2.995933e+00 -9.091140e-05 1.031321e-14 3.509818e-14 -1.596884e-14 9.038451e-15 1.308001e+01 
1.527855e-01 3.004182e+00 3.004183e+00 -9.091299e-05 -3.483497e-05 6.117429e-06 -4.095240e-05 9.038451e-15 1.308001e+01 
3.019899e-01 2.995446e+00 2.995446e+00 -9.091138e-05 7.452397e-05 -1.362924e-05 8.815321e-05 9.038451e-15 1.308001e+01 
4.441158e-01 3.005269e+00 3.005269e+00 -9.091304e-05 -1.294505e-04 2.248607e-05 -1.519365e-04 9.038451e-15 1.308001e+01 
5.758320e-01 2.993480e+00 2.993480e+00 -9.091132e-05 2.078218e-04 -3.801824e-05 2.458401e-04 9.038451e-15 1.308001e+01 
6.940510e-01 3.008716e+00 3.008717e+00 -9.091313e-05 -3.501957e-04 5.874873e-05 -4.089444e-04 9.038451e-15 1.308001e+01 
7.960019e-01 2.987215e+00 2.987214e+00 -9.091118e-05 6.016018e-04 -1.104122e-04 7.120140e-04 9.038451e-15 1.308001e+01 
8.792948e-01 3.020899e+00 3.020900e+00 -9.091335e-05 -1.255695e-03 1.841561e-04 -1.439851e-03 9.038451e-15 1.308001e+01 
9.419763e-01 2.962547e+00 2.962545e+00 -9.091085e-05 2.933498e-03 -5.530746e-04 3.486573e-03 9.038451e-15 1.308001e+01 
9.825723e-01 2.876394e+00 2.876401e+00 -9.091409e-05 -1.513099e-02 -5.209592e-05 -1.507889e-02 9.038451e-15 1.308001e+01 
1 5.215431e-01 5.214857e-01 -9.091139e-05 7.490322e-02 6.673411e-02 8.169106e-03 9.038451e-15 1.308001e+01 
ZONE T="1.063e-05", I=21
-1 5.100312e-01 5.099761e-01 -9.064918e-05 -7.202349e-02 -6.395770e-02 -8.065785e-03 3.769890e-14 1.307521e+01 
-9.825723e-01 2.863430e+00 2.863438e+00 -9.065221e-05 1.521221e-02 3.592367e-04 1.485297e-02 3.769890e-14 1.307521e+01 
-9.419763e-01 2.956412e+00 2.956409e+00 -9.064844e-05 -2.889705e-03 5.613567e-04 -3.451062e-03 3.769890e-14 1.307521e+01 
-8.792948e-01 3.024072e+00 3.024074e+00 -9.065134e-05 1.255659e-03 -1.839641e-04 1.439623e-03 3.769890e-14 1.307521e+01 
-7.960019e-01 2.985275e+00 2.985275e+00 -9.064882e-05 -5.977362e-04 1.132502e-04 -7.109865e-04 3.769890e-14 1.307521e+01 
-6.940510e-01 3.010042e+00 3.010042e+00 -9.065108e-05 3.497220e-04 -5.975901e-05 4.094810e-04 3.769890e-14 1.307521e+01 
-5.758320e-01 2.992486e+00 2.992485e+00 -9.064898e-05 -2.069020e-04 3.905288e-05 -2.459549e-04 3.769890e-14 1.307521e+01 
-4.441158e-01 3.006074e+00 3.006074e+00 -9.065097e-05 1.292264e-04 -2.297807e-05 1.522045e-04 3.769890e-14 1.307521e+01 
-3.019899e-01 2.994749e+00 2.994749e+00 -9.064905e-05 -7.424154e-05 1.400694e-05 -8.824848e-05 3.769890e-14 1.307521e+01 
-1.527855e-01 3.004822e+00 3.004823e+00 -9.065092e-05 3.477065e-05 -6.260280e-06 4.103093e-05 3.769890e-14 1.307521e+01 
0 2.995311e+00 2.995310e+00 -9.064907e-05 2.328307e-15 1.330462e-14 -8.398538e-15 3.769890e-14 1.307521e+01 
1.527855e-01 3.004822e+00 3.004823e+00 -9.065092e-05 -3.477065e-05 6.260280e-06 -4.103093e-05 3.769890e-14 1.307521e+01 
3.019899e-01 2.994749e+00 2.994749e+00 -9.064905e-05 7.424154e-05 -1.400694e-05 8.824848e-05 3.769890e-14 1.307521e+01 
4.441158e-01 3.006074e+00 3.006074e+00 -9.065097e-05 -1.292264e-04 2.297807e-05 -1.522045e-04 3.769890e-14 1.307521e+01 
5.758320e-01 2.992486e+00 2.992485e+00 -9.064898e-05 2.069020e-04 -3.905288e-05 2.459549e-04 3.769890e-14 1.307521e+01 
6.940510e-01 3.010042e+00 3.010042e+00 -9.065108e-05 -3.497220e-04 5.975901e-05 -4.094810e-04 3.769890e-14 1.307521e+01 
7.960019e-01 2.985275e+00 2.985275e+00 -9.064882e-05 5.977362e-04 -1.132502e-04 7.109865e-04 3.769890e-14 1.307521e+01 
8.792948e-01 3.024072e+00 3.024074e+00 -9.065134e-05 -1.255659e-03 1.839641e-04 -1.439623e-03 3.769890e-14 1.307521e+01 
9.419763e-01 2.956412e+00 2.956409e+00 -9.064844e-05 2.889705e-03 -5.613567e-04 3.451062e-03 3.769890e-14 1.307521e+01 
9.825723e-01 2.863430e+00 2.863438e+00 -9.065221e-05 -1.521221e-02 -3.592367e-04 -1.485297e-02 3.769890e-14 1.307521e+01 
1 5.100312e-01 5.099761e-01 -9.064918e-05 7.202349e-02 6.395770e-02 8.065785e-03 3.769890e-14 1.307521e+01 
ZONE T="1.1693e-05", I=21
-1 5.014914e-01 5.014381e-01 -9.036699e-05 -6.938844e-02 -6.148631e-02 -7.902131e-03 6.475701e-14 1.307050e+01 
-9.825723e-01 2.850719e+00 2.850728e+00 -9.037032e-05 1.522868e-02 6.438905e-04 1.458479e-02 6.475701e-14 1.307050e+01 
-9.419763e-01 2.950259e+00 2.950256e+00 -9.036604e-05 -2.835463e-03 5.698451e-04 -3.405308e-03 6.475701e-14 1.307050e+01 
-8.792948e-01 3.027223e+00 3.027225e+00 -9.036932e-05 1.250589e-03 -1.844715e-04 1.435061e-03 6.475701e-14 1.307050e+01 
-7.960019e-01 2.983345e+00 2.983344e+00 -9.036646e-05 -5.914985e-04 1.163262e-04 -7.078247e-04 6.475701e-14 1.307050e+01 
-6.940510e-01 3.011364e+00 3.011364e+00 -9.036903e-05 3.478666e-04 -6.092316e-05 4.087897e-04 6.475701e-14 1.307050e+01 
-5.758320e-01 2.991493e+00 2.991492e+00 -9.036664e-05 -2.051594e-04 4.017194e-05 -2.453314e-04 6.475701e-14 1.307050e+01 
-4.441158e-01 3.006878e+00 3.006878e+00 -9.036890e-05 1.284921e-04 -2.352426e-05 1.520164e-04 6.475701e-14 1.307050e+01 
-3.019899e-01 2.994053e+00 2.994053e+00 -9.036673e-05 -7.366405e-05 1.441489e-05 -8.807895e-05 6.475701e-14 1.307050e+01 
-1.527855e-01 3.005462e+00 3.005463e+00 -9.036885e-05 3.456900e-05 -6.417523e-06 4.098653e-05 6.475701e-14 1.307050e+01 
0 2.994688e+00 2.994688e+00 -9.036675e-05 6.085596e-14 1.330184e-15 1.496458e-14 6.475701e-14 1.307050e+01 
1.527855e-01 3.005462e+00 3.005463e+00 -9.036885e-05 -3.456900e-05 6.417523e-06 -4.098653e-05 6.475701e-14 1.307050e+01 
3.019899e-01 2.994053e+00 2.994053e+00 -9.036673e-05 7.366405e-05 -1.441489e-05 8.807895e-05 6.475701e-14 1.307050e+01 
4.441158e-01 3.006878e+00 3.006878e+00 -9.036890e-05 -1.284921e-04 2.352426e-05 -1.520164e-04 6.475701e-14 1.307050e+01 
5.758320e-01 2.991493e+00 2.991492e+00 -9.036664e-05 2.051594e-04 -4.017194e-05 2.453314e-04 6.475701e-14 1.307050e+01 
6.940510e-01 3.011364e+00 3.011364e+00 -9.036903e-05 -3.478666e-04 6.092316e-05 -4.087897e-04 6.475701e-14 1.307050e+01 
7.960019e-01 2.983345e+00 2.983344e+00 -9.036646e-05 5.914985e-04 -1.163262e-04 7.078247e-04 6.475701e-14 1.307050e+01 
8.792948e-01 3.027223e+00 3.027225e+00 -9.036932e-05 -1.250589e-03 1.844715e-04 -1.435061e-03 6.475701e-14 1.307050e+01 
9.419763e-01 2.950259e+00 2.950256e+00 -9.036604e-05 2.835463e-03 -5.698451e-04 3.405308e-03 6.475701e-14 1.307050e+01 
9.825723e-01 2.850719e+00 2.850728e+00 -9.037032e-05 -1.522868e-02 -6.438905e-04 -1.458479e-02 6.475701e-14 1.307050e+01 
1 5.014914e-01 5.014381e-01 -9.036699e-05 6.938844e-02 6.148631e-02 7.902131e-03 6.475701e-14 1.307050e+01 
ZONE T="1.2756e-05", I=21
-1 4.949695e-01 4.949178e-01 -9.006757e-05 -6.703287e-02 -5.931976e-02 -7.713108e-03 2.339871e-15 1.306586e+01 
-9.825723e-01 2.838228e+00 2.838238e+00 -9.007119e-05 1.521700e-02 9.082193e-04 1.430878e-02 2.339871e-15 1.306586e+01 
-9.419763e-01 2.944110e+00 2.944107e+00 -9.006639e-05 -2.778831e-03 5.784405e-04 -3.357272e-03 2.339871e-15 1.306586e+01 
-8.792948e-01 3.030341e+00 3.030343e+00 -9.007005e-05 1.243668e-03 -1.856117e-04 1.429280e-03 2.339871e-15 1.306586e+01 
-7.960019e-01 2.981428e+00 2.981427e+00 -9.006685e-05 -5.844658e-04 1.196079e-04 -7.040737e-04 2.339871e-15 1.306586e+01 
-6.940510e-01 3.012678e+00 3.012679e+00 -9.006972e-05 3.455221e-04 -6.222309e-05 4.077452e-04 2.339871e-15 1.306586e+01 
-5.758320e-01 2.990504e+00 2.990503e+00 -9.006706e-05 -2.031327e-04 4.136413e-05 -2.444968e-04 2.339871e-15 1.306586e+01 
-4.441158e-01 3.007680e+00 3.007680e+00 -9.006958e-05 1.275781e-04 -2.411786e-05 1.516960e-04 2.339871e-15 1.306586e+01 
-3.019899e-01 2.993358e+00 2.993358e+00 -9.006715e-05 -7.298396e-05 1.484903e-05 -8.783299e-05 2.339871e-15 1.306586e+01 
-1.527855e-01 3.006101e+00 3.006101e+00 -9.006952e-05 3.431904e-05 -6.587319e-06 4.090636e-05 2.339871e-15 1.306586e+01 
0 2.994067e+00 2.994066e+00 -9.006718e-05 1.413028e-14 5.303010e-14 2.314872e-14 2.339871e-15 1.306586e+01 
1.527855e-01 3.006101e+00 3.006101e+00 -9.006952e-05 -3.431904e-05 6.587319e-06 -4.090636e-05 2.339871e-15 1.306586e+01 
3.019899e-01 2.993358e+00 2.993358e+00 -9.006715e-05 7.298396e-05 -1.484903e-05 8.783299e-05 2.339871e-15 1.306586e+01 
4.441158e-01 3.007680e+00 3.007680e+00 -9.006958e-05 -1.275781e-04 2.411786e-05 -1.516960e-04 2.339871e-15 1.306586e+01 
5.758320e-01 2.990504e+00 2.990503e+00 -9.006706e-05 2.031327e-04 -4.136413e-05 2.444968e-04 2.339871e-15 1.306586e+01 
6.940510e-01 3.012678e+00 3.012679e+00 -9.006972e-05 -3.455221e-04 6.222309e-05 -4.077452e-04 2.339871e-15 1.306586e+01 
7.960019e-01 2.981428e+00 2.981427e+00 -9.006685e-05 5.844658e-04 -1.196079e-04 7.040737e-04 2.339871e-15 1.306586e+01 
8.792948e-01 3.030341e+00 3.030343e+00 -9.007005e-05 -1.243668e-03 1.856117e-04 -1.429280e-03 2.339871e-15 1.306586e+01 
9.419763e-01 2.944110e+00 2.944107e+00 -9.006639e-05 2.778831e-03 -5.784405e-04 3.357272e-03 2.339871e-15 1.306586e+01 
9.825723e-01 2.838228e+00 2.838238e+00 -9.007119e-05 -1.521700e-02 -9.082193e-04 -1.430878e-02 2.339871e-15 1.306586e+01 
1 4.949695e-01 4.949178e-01 -9.006757e-05 6.703287e-02 5.931976e-02 7.713108e-03 2.339871e-15 1.306586e+01 
ZONE T="1.3819e-05", I=21