TITLE = "2 species of PNP-Steric with high order term" 
VARIABLES = "X" "Conc1" "Conc2" "phi" "Current_x""I_ext" "I_PNP" "CURRENT" "ENERGY" "
ZONE T="0.001", I=101
-1 6.685204e-01 6.685204e-01 1.081270e+00 -5.981379e+02 0 -5.783345e+01 -5.164434e-07 6.710236e+01 
-9.995066e-01 6.686356e-01 6.686356e-01 1.086606e+00 -5.977896e+02 0 -5.969788e+01 -5.164434e-07 6.710236e+01 
-9.980267e-01 6.703248e-01 6.703248e-01 1.102603e+00 -5.967298e+02 0 -6.517387e+01 -5.164434e-07 6.710236e+01 
-9.955620e-01 6.773326e-01 6.773326e-01 1.129235e+00 -5.949452e+02 0 -7.391284e+01 -5.164434e-07 6.710236e+01 
-9.921147e-01 6.950005e-01 6.950005e-01 1.166456e+00 -5.924032e+02 0 -8.535228e+01 -5.164434e-07 6.710236e+01 
-9.876883e-01 7.291013e-01 7.291013e-01 1.214199e+00 -5.890252e+02 0 -9.876390e+01 -5.164434e-07 6.710236e+01 
-9.822873e-01 7.845770e-01 7.845770e-01 1.272378e+00 -5.846983e+02 0 -1.133408e+02 -5.164434e-07 6.710236e+01 
-9.759168e-01 8.644866e-01 8.644866e-01 1.340880e+00 -5.792565e+02 0 -1.283060e+02 -5.164434e-07 6.710236e+01 
-9.685832e-01 9.694194e-01 9.694194e-01 1.419564e+00 -5.724684e+02 0 -1.430043e+02 -5.164434e-07 6.710236e+01 
-9.602937e-01 1.097463e+00 1.097463e+00 1.508252e+00 -5.640527e+02 0 -1.569461e+02 -5.164434e-07 6.710236e+01 
-9.510565e-01 1.244637e+00 1.244637e+00 1.606721e+00 -5.537164e+02 0 -1.698019e+02 -5.164434e-07 6.710236e+01 
-9.408808e-01 1.405596e+00 1.405596e+00 1.714702e+00 -5.411935e+02 0 -1.813675e+02 -5.164434e-07 6.710236e+01 
-9.297765e-01 1.574395e+00 1.574395e+00 1.831870e+00 -5.262793e+02 0 -1.915242e+02 -5.164434e-07 6.710236e+01 
-9.177546e-01 1.745165e+00 1.745165e+00 1.957843e+00 -5.088608e+02 0 -2.002058e+02 -5.164434e-07 6.710236e+01 
-9.048271e-01 1.912617e+00 1.912617e+00 2.092179e+00 -4.889410e+02 0 -2.073780e+02 -5.164434e-07 6.710236e+01 
-8.910065e-01 2.072350e+00 2.072350e+00 2.234378e+00 -4.666542e+02 0 -2.130278e+02 -5.164434e-07 6.710236e+01 
-8.763067e-01 2.220979e+00 2.220979e+00 2.383885e+00 -4.422687e+02 0 -2.171599e+02 -5.164434e-07 6.710236e+01 
-8.607420e-01 2.356133e+00 2.356133e+00 2.540095e+00 -4.161798e+02 0 -2.197971e+02 -5.164434e-07 6.710236e+01 
-8.443279e-01 2.476358e+00 2.476358e+00 2.702356e+00 -3.888930e+02 0 -2.209822e+02 -5.164434e-07 6.710236e+01 
-8.270806e-01 2.580989e+00 2.580989e+00 2.869979e+00 -3.609978e+02 0 -2.207800e+02 -5.164434e-07 6.710236e+01 
-8.090170e-01 2.670002e+00 2.670002e+00 3.042243e+00 -3.331345e+02 0 -2.192784e+02 -5.164434e-07 6.710236e+01 
-7.901550e-01 2.743884e+00 2.743884e+00 3.218401e+00 -3.059552e+02 0 -2.165873e+02 -5.164434e-07 6.710236e+01 
-7.705132e-01 2.803519e+00 2.803519e+00 3.397693e+00 -2.800811e+02 0 -2.128362e+02 -5.164434e-07 6.710236e+01 
-7.501111e-01 2.850097e+00 2.850097e+00 3.579346e+00 -2.560589e+02 0 -2.081699e+02 -5.164434e-07 6.710236e+01 
-7.289686e-01 2.885040e+00 2.885040e+00 3.762584e+00 -2.343195e+02 0 -2.027414e+02 -5.164434e-07 6.710236e+01 
-7.071068e-01 2.909927e+00 2.909927e+00 3.946633e+00 -2.151451e+02 0 -1.967049e+02 -5.164434e-07 6.710236e+01 
-6.845471e-01 2.926430e+00 2.926430e+00 4.130726e+00 -1.986458e+02 0 -1.902067e+02 -5.164434e-07 6.710236e+01 
-6.613119e-01 2.936240e+00 2.936240e+00 4.314105e+00 -1.847543e+02 0 -1.833780e+02 -5.164434e-07 6.710236e+01 
-6.374240e-01 2.940992e+00 2.940992e+00 4.496026e+00 -1.732373e+02 0 -1.763273e+02 -5.164434e-07 6.710236e+01 
-6.129071e-01 2.942193e+00 2.942193e+00 4.675757e+00 -1.637260e+02 0 -1.691368e+02 -5.164434e-07 6.710236e+01 
-5.877853e-01 2.941155e+00 2.941155e+00 4.852585e+00 -1.557620e+02 0 -1.618607e+02 -5.164434e-07 6.710236e+01 
-5.620834e-01 2.938949e+00 2.938949e+00 5.025812e+00 -1.488522e+02 0 -1.545273e+02 -5.164434e-07 6.710236e+01 
-5.358268e-01 2.936376e+00 2.936376e+00 5.194760e+00 -1.425241e+02 0 -1.471434e+02 -5.164434e-07 6.710236e+01 
-5.090414e-01 2.933972e+00 2.933972e+00 5.358766e+00 -1.363737e+02 0 -1.397008e+02 -5.164434e-07 6.710236e+01 
-4.817537e-01 2.932031e+00 2.932031e+00 5.517189e+00 -1.300969e+02 0 -1.321838e+02 -5.164434e-07 6.710236e+01 
-4.539905e-01 2.930658e+00 2.930658e+00 5.669410e+00 -1.235022e+02 0 -1.245748e+02 -5.164434e-07 6.710236e+01 
-4.257793e-01 2.929819e+00 2.929819e+00 5.814832e+00 -1.165040e+02 0 -1.168602e+02 -5.164434e-07 6.710236e+01 
-3.971479e-01 2.929407e+00 2.929407e+00 5.952883e+00 -1.091013e+02 0 -1.090319e+02 -5.164434e-07 6.710236e+01 
-3.681246e-01 2.929285e+00 2.929285e+00 6.083021e+00 -1.013488e+02 0 -1.010890e+02 -5.164434e-07 6.710236e+01 
-3.387379e-01 2.929326e+00 2.929326e+00 6.204731e+00 -9.332676e+01 0 -9.303602e+01 -5.164434e-07 6.710236e+01 
-3.090170e-01 2.929434e+00 2.929434e+00 6.317533e+00 -8.511730e+01 0 -8.488170e+01 -5.164434e-07 6.710236e+01 
-2.789911e-01 2.929546e+00 2.929546e+00 6.420983e+00 -7.678822e+01 0 -7.663677e+01 -5.164434e-07 6.710236e+01 
-2.486899e-01 2.929631e+00 2.929631e+00 6.514671e+00 -6.838658e+01 0 -6.831247e+01 -5.164434e-07 6.710236e+01 
-2.181432e-01 2.929682e+00 2.929682e+00 6.598227e+00 -5.993934e+01 0 -5.991951e+01 -5.164434e-07 6.710236e+01 
-1.873813e-01 2.929705e+00 2.929705e+00 6.671321e+00 -5.145839e+01 0 -5.146775e+01 -5.164434e-07 6.710236e+01 
-1.564345e-01 2.929709e+00 2.929709e+00 6.733665e+00 -4.294698e+01 0 -4.296615e+01 -5.164434e-07 6.710236e+01 
-1.253332e-01 2.929704e+00 2.929704e+00 6.785013e+00 -3.440541e+01 0 -3.442312e+01 -5.164434e-07 6.710236e+01 
-9.410831e-02 2.929696e+00 2.929696e+00 6.825161e+00 -2.583483e+01 0 -2.584679e+01 -5.164434e-07 6.710236e+01 
-6.279052e-02 2.929690e+00 2.929690e+00 6.853953e+00 -1.723897e+01 0 -1.724529e+01 -5.164434e-07 6.710236e+01 
-3.141076e-02 2.929686e+00 2.929686e+00 6.871273e+00 -8.624440e+00 0 -8.626896e+00 -5.164434e-07 6.710236e+01 
-6.123234e-17 2.929685e+00 2.929685e+00 6.877054e+00 4.439964e-07 0 4.691666e-09 -5.164434e-07 6.710236e+01 
3.141076e-02 2.929686e+00 2.929686e+00 6.871273e+00 8.624441e+00 0 8.626896e+00 -5.164434e-07 6.710236e+01 
6.279052e-02 2.929690e+00 2.929690e+00 6.853953e+00 1.723897e+01 0 1.724529e+01 -5.164434e-07 6.710236e+01 
9.410831e-02 2.929696e+00 2.929696e+00 6.825161e+00 2.583483e+01 0 2.584679e+01 -5.164434e-07 6.710236e+01 
1.253332e-01 2.929704e+00 2.929704e+00 6.785013e+00 3.440541e+01 0 3.442312e+01 -5.164434e-07 6.710236e+01 
1.564345e-01 2.929709e+00 2.929709e+00 6.733665e+00 4.294698e+01 0 4.296615e+01 -5.164434e-07 6.710236e+01 
1.873813e-01 2.929705e+00 2.929705e+00 6.671321e+00 5.145839e+01 0 5.146775e+01 -5.164434e-07 6.710236e+01 
2.181432e-01 2.929682e+00 2.929682e+00 6.598227e+00 5.993934e+01 0 5.991951e+01 -5.164434e-07 6.710236e+01 
2.486899e-01 2.929631e+00 2.929631e+00 6.514671e+00 6.838658e+01 0 6.831246e+01 -5.164434e-07 6.710236e+01 
2.789911e-01 2.929546e+00 2.929546e+00 6.420983e+00 7.678822e+01 0 7.663677e+01 -5.164434e-07 6.710236e+01 
3.090170e-01 2.929434e+00 2.929434e+00 6.317533e+00 8.511730e+01 0 8.488170e+01 -5.164434e-07 6.710236e+01 
3.387379e-01 2.929326e+00 2.929326e+00 6.204731e+00 9.332676e+01 0 9.303602e+01 -5.164434e-07 6.710236e+01 
3.681246e-01 2.929285e+00 2.929285e+00 6.083021e+00 1.013488e+02 0 1.010890e+02 -5.164434e-07 6.710236e+01 
3.971479e-01 2.929407e+00 2.929407e+00 5.952883e+00 1.091013e+02 0 1.090319e+02 -5.164434e-07 6.710236e+01 
4.257793e-01 2.929819e+00 2.929819e+00 5.814832e+00 1.165040e+02 0 1.168602e+02 -5.164434e-07 6.710236e+01 
4.539905e-01 2.930658e+00 2.930658e+00 5.669410e+00 1.235022e+02 0 1.245748e+02 -5.164434e-07 6.710236e+01 
4.817537e-01 2.932031e+00 2.932031e+00 5.517189e+00 1.300969e+02 0 1.321838e+02 -5.164434e-07 6.710236e+01 
5.090414e-01 2.933972e+00 2.933972e+00 5.358766e+00 1.363737e+02 0 1.397008e+02 -5.164434e-07 6.710236e+01 
5.358268e-01 2.936376e+00 2.936376e+00 5.194760e+00 1.425241e+02 0 1.471434e+02 -5.164434e-07 6.710236e+01 
5.620834e-01 2.938949e+00 2.938949e+00 5.025812e+00 1.488522e+02 0 1.545273e+02 -5.164434e-07 6.710236e+01 
5.877853e-01 2.941155e+00 2.941155e+00 4.852585e+00 1.557620e+02 0 1.618607e+02 -5.164434e-07 6.710236e+01 
6.129071e-01 2.942193e+00 2.942193e+00 4.675757e+00 1.637260e+02 0 1.691368e+02 -5.164434e-07 6.710236e+01 
6.374240e-01 2.940992e+00 2.940992e+00 4.496026e+00 1.732373e+02 0 1.763273e+02 -5.164434e-07 6.710236e+01 
6.613119e-01 2.936240e+00 2.936240e+00 4.314105e+00 1.847543e+02 0 1.833780e+02 -5.164434e-07 6.710236e+01 
6.845471e-01 2.926430e+00 2.926430e+00 4.130726e+00 1.986458e+02 0 1.902067e+02 -5.164434e-07 6.710236e+01 
7.071068e-01 2.909927e+00 2.909927e+00 3.946633e+00 2.151451e+02 0 1.967049e+02 -5.164434e-07 6.710236e+01 
7.289686e-01 2.885040e+00 2.885040e+00 3.762584e+00 2.343196e+02 0 2.027414e+02 -5.164434e-07 6.710236e+01 
7.501111e-01 2.850097e+00 2.850097e+00 3.579346e+00 2.560589e+02 0 2.081699e+02 -5.164434e-07 6.710236e+01 
7.705132e-01 2.803519e+00 2.803519e+00 3.397693e+00 2.800811e+02 0 2.128362e+02 -5.164434e-07 6.710236e+01 
7.901550e-01 2.743884e+00 2.743884e+00 3.218401e+00 3.059552e+02 0 2.165873e+02 -5.164434e-07 6.710236e+01 
8.090170e-01 2.670002e+00 2.670002e+00 3.042243e+00 3.331345e+02 0 2.192784e+02 -5.164434e-07 6.710236e+01 
8.270806e-01 2.580989e+00 2.580989e+00 2.869979e+00 3.609978e+02 0 2.207800e+02 -5.164434e-07 6.710236e+01 
8.443279e-01 2.476358e+00 2.476358e+00 2.702356e+00 3.888930e+02 0 2.209822e+02 -5.164434e-07 6.710236e+01 
8.607420e-01 2.356132e+00 2.356132e+00 2.540095e+00 4.161799e+02 0 2.197971e+02 -5.164434e-07 6.710236e+01 
8.763067e-01 2.220979e+00 2.220979e+00 2.383885e+00 4.422687e+02 0 2.171599e+02 -5.164434e-07 6.710236e+01 
8.910065e-01 2.072350e+00 2.072350e+00 2.234378e+00 4.666542e+02 0 2.130278e+02 -5.164434e-07 6.710236e+01 
9.048271e-01 1.912617e+00 1.912617e+00 2.092179e+00 4.889410e+02 0 2.073780e+02 -5.164434e-07 6.710236e+01 
9.177546e-01 1.745165e+00 1.745165e+00 1.957843e+00 5.088607e+02 0 2.002058e+02 -5.164434e-07 6.710236e+01 
9.297765e-01 1.574395e+00 1.574395e+00 1.831870e+00 5.262793e+02 0 1.915242e+02 -5.164434e-07 6.710236e+01 
9.408808e-01 1.405596e+00 1.405596e+00 1.714702e+00 5.411935e+02 0 1.813675e+02 -5.164434e-07 6.710236e+01 
9.510565e-01 1.244637e+00 1.244637e+00 1.606721e+00 5.537164e+02 0 1.698019e+02 -5.164434e-07 6.710236e+01 
9.602937e-01 1.097463e+00 1.097463e+00 1.508252e+00 5.640527e+02 0 1.569461e+02 -5.164434e-07 6.710236e+01 
9.685832e-01 9.694193e-01 9.694193e-01 1.419564e+00 5.724684e+02 0 1.430043e+02 -5.164434e-07 6.710236e+01 
9.759168e-01 8.644866e-01 8.644866e-01 1.340880e+00 5.792564e+02 0 1.283060e+02 -5.164434e-07 6.710236e+01 
9.822873e-01 7.845770e-01 7.845770e-01 1.272378e+00 5.846983e+02 0 1.133408e+02 -5.164434e-07 6.710236e+01 
9.876883e-01 7.291013e-01 7.291013e-01 1.214199e+00 5.890252e+02 0 9.876389e+01 -5.164434e-07 6.710236e+01 
9.921147e-01 6.950004e-01 6.950004e-01 1.166456e+00 5.924031e+02 0 8.535227e+01 -5.164434e-07 6.710236e+01 
9.955620e-01 6.773326e-01 6.773326e-01 1.129235e+00 5.949452e+02 0 7.391284e+01 -5.164434e-07 6.710236e+01 
9.980267e-01 6.703248e-01 6.703248e-01 1.102603e+00 5.967298e+02 0 6.517387e+01 -5.164434e-07 6.710236e+01 
9.995066e-01 6.686356e-01 6.686356e-01 1.086606e+00 5.977895e+02 0 5.969788e+01 -5.164434e-07 6.710236e+01 
1 6.685204e-01 6.685204e-01 1.081270e+00 5.981377e+02 0 5.783345e+01 -5.164434e-07 6.710236e+01 
ZONE T="0.002", I=101
-1 5.578061e-01 5.578061e-01 1.030643e+00 -4.417368e+02 0 -4.599625e+01 5.552597e-08 6.217271e+01 
-9.995066e-01 5.579065e-01 5.579065e-01 1.035729e+00 -4.415948e+02 0 -4.762099e+01 5.552597e-08 6.217271e+01 
-9.980267e-01 5.593775e-01 5.593775e-01 1.050978e+00 -4.411780e+02 0 -5.238683e+01 5.552597e-08 6.217271e+01 
-9.955620e-01 5.654787e-01 5.654787e-01 1.076366e+00 -4.404877e+02 0 -5.997332e+01 5.552597e-08 6.217271e+01 
-9.921147e-01 5.808545e-01 5.808545e-01 1.111850e+00 -4.395054e+02 0 -6.986830e+01 5.552597e-08 6.217271e+01 
-9.876883e-01 6.105193e-01 6.105193e-01 1.157372e+00 -4.382041e+02 0 -8.141802e+01 5.552597e-08 6.217271e+01 
-9.822873e-01 6.587639e-01 6.587639e-01 1.212854e+00 -4.365292e+02 0 -9.391176e+01 5.552597e-08 6.217271e+01 
-9.759168e-01 7.282576e-01 7.282576e-01 1.278194e+00 -4.343977e+02 0 -1.066826e+02 5.552597e-08 6.217271e+01 
-9.685832e-01 8.195629e-01 8.195629e-01 1.353265e+00 -4.316976e+02 0 -1.191882e+02 5.552597e-08 6.217271e+01 
-9.602937e-01 9.311308e-01 9.311308e-01 1.437908e+00 -4.282944e+02 0 -1.310452e+02 5.552597e-08 6.217271e+01 
-9.510565e-01 1.059690e+00 1.059690e+00 1.531924e+00 -4.240415e+02 0 -1.420178e+02 5.552597e-08 6.217271e+01 
-9.408808e-01 1.200856e+00 1.200856e+00 1.635073e+00 -4.187938e+02 0 -1.519813e+02 5.552597e-08 6.217271e+01 
-9.297765e-01 1.349776e+00 1.349776e+00 1.747065e+00 -4.124215e+02 0 -1.608823e+02 5.552597e-08 6.217271e+01 
-9.177546e-01 1.501699e+00 1.501699e+00 1.867558e+00 -4.048224e+02 0 -1.687058e+02 5.552597e-08 6.217271e+01 
-9.048271e-01 1.652375e+00 1.652375e+00 1.996159e+00 -3.959312e+02 0 -1.754538e+02 5.552597e-08 6.217271e+01 
-8.910065e-01 1.798302e+00 1.798302e+00 2.132420e+00 -3.857263e+02 0 -1.811341e+02 5.552597e-08 6.217271e+01 
-8.763067e-01 1.936806e+00 1.936806e+00 2.275841e+00 -3.742319e+02 0 -1.857551e+02 5.552597e-08 6.217271e+01 
-8.607420e-01 2.066017e+00 2.066017e+00 2.425874e+00 -3.615187e+02 0 -1.893256e+02 5.552597e-08 6.217271e+01 
-8.443279e-01 2.184772e+00 2.184772e+00 2.581925e+00 -3.477007e+02 0 -1.918557e+02 5.552597e-08 6.217271e+01 
-8.270806e-01 2.292476e+00 2.292476e+00 2.743361e+00 -3.329310e+02 0 -1.933600e+02 5.552597e-08 6.217271e+01 
-8.090170e-01 2.388972e+00 2.388972e+00 2.909512e+00 -3.173954e+02 0 -1.938598e+02 5.552597e-08 6.217271e+01 
-7.901550e-01 2.474416e+00 2.474416e+00 3.079679e+00 -3.013048e+02 0 -1.933850e+02 5.552597e-08 6.217271e+01 
-7.705132e-01 2.549183e+00 2.549183e+00 3.253138e+00 -2.848868e+02 0 -1.919757e+02 5.552597e-08 6.217271e+01 
-7.501111e-01 2.613797e+00 2.613797e+00 3.429148e+00 -2.683763e+02 0 -1.896827e+02 5.552597e-08 6.217271e+01 
-7.289686e-01 2.668881e+00 2.668881e+00 3.606952e+00 -2.520050e+02 0 -1.865667e+02 5.552597e-08 6.217271e+01 
-7.071068e-01 2.715131e+00 2.715131e+00 3.785789e+00 -2.359915e+02 0 -1.826975e+02 5.552597e-08 6.217271e+01 
-6.845471e-01 2.753297e+00 2.753297e+00 3.964893e+00 -2.205312e+02 0 -1.781516e+02 5.552597e-08 6.217271e+01 
-6.613119e-01 2.784169e+00 2.784169e+00 4.143502e+00 -2.057867e+02 0 -1.730101e+02 5.552597e-08 6.217271e+01 
-6.374240e-01 2.808562e+00 2.808562e+00 4.320861e+00 -1.918802e+02 0 -1.673550e+02 5.552597e-08 6.217271e+01 
-6.129071e-01 2.827312e+00 2.827312e+00 4.496225e+00 -1.788886e+02 0 -1.612669e+02 5.552597e-08 6.217271e+01 
-5.877853e-01 2.841251e+00 2.841251e+00 4.668864e+00 -1.668405e+02 0 -1.548212e+02 5.552597e-08 6.217271e+01 
-5.620834e-01 2.851193e+00 2.851193e+00 4.838068e+00 -1.557177e+02 0 -1.480864e+02 5.552597e-08 6.217271e+01 
-5.358268e-01 2.857914e+00 2.857914e+00 5.003145e+00 -1.454590e+02 0 -1.411216e+02 5.552597e-08 6.217271e+01 
-5.090414e-01 2.862130e+00 2.862130e+00 5.163426e+00 -1.359681e+02 0 -1.339756e+02 5.552597e-08 6.217271e+01 
-4.817537e-01 2.864485e+00 2.864485e+00 5.318267e+00 -1.271233e+02 0 -1.266866e+02 5.552597e-08 6.217271e+01 
-4.539905e-01 2.865529e+00 2.865529e+00 5.467050e+00 -1.187888e+02 0 -1.192825e+02 5.552597e-08 6.217271e+01 
-4.257793e-01 2.865718e+00 2.865718e+00 5.609185e+00 -1.108262e+02 0 -1.117826e+02 5.552597e-08 6.217271e+01 
-3.971479e-01 2.865408e+00 2.865408e+00 5.744109e+00 -1.031050e+02 0 -1.041988e+02 5.552597e-08 6.217271e+01 
-3.681246e-01 2.864863e+00 2.864863e+00 5.871290e+00 -9.551133e+01 0 -9.653811e+01 5.552597e-08 6.217271e+01 
-3.387379e-01 2.864261e+00 2.864261e+00 5.990228e+00 -8.795287e+01 0 -8.880416e+01 5.552597e-08 6.217271e+01 
-3.090170e-01 2.863709e+00 2.863709e+00 6.100456e+00 -8.036178e+01 0 -8.099914e+01 5.552597e-08 6.217271e+01 
-2.789911e-01 2.863264e+00 2.863264e+00 6.201540e+00 -7.269406e+01 0 -7.312513e+01 5.552597e-08 6.217271e+01 
-2.486899e-01 2.862939e+00 2.862939e+00 6.293084e+00 -6.492681e+01 0 -6.518498e+01 5.552597e-08 6.217271e+01 
-2.181432e-01 2.862726e+00 2.862726e+00 6.374725e+00 -5.705398e+01 0 -5.718277e+01 5.552597e-08 6.217271e+01 
-1.873813e-01 2.862604e+00 2.862604e+00 6.446145e+00 -4.908148e+01 0 -4.912390e+01 5.552597e-08 6.217271e+01 
-1.564345e-01 2.862547e+00 2.862547e+00 6.507060e+00 -4.102256e+01 0 -4.101502e+01 5.552597e-08 6.217271e+01 
-1.253332e-01 2.862531e+00 2.862531e+00 6.557231e+00 -3.289383e+01 0 -3.286365e+01 5.552597e-08 6.217271e+01 
-9.410831e-02 2.862537e+00 2.862537e+00 6.596459e+00 -2.471236e+01 0 -2.467793e+01 5.552597e-08 6.217271e+01 
-6.279052e-02 2.862550e+00 2.862550e+00 6.624591e+00 -1.649397e+01 0 -1.646634e+01 5.552597e-08 6.217271e+01 
-3.141076e-02 2.862561e+00 2.862561e+00 6.641514e+00 -8.252492e+00 0 -8.237483e+00 5.552597e-08 6.217271e+01 
-6.123234e-17 2.862566e+00 2.862566e+00 6.647163e+00 4.492492e-07 0 -3.324631e-08 5.552597e-08 6.217271e+01 
3.141076e-02 2.862561e+00 2.862561e+00 6.641514e+00 8.252493e+00 0 8.237483e+00 5.552597e-08 6.217271e+01 
6.279052e-02 2.862550e+00 2.862550e+00 6.624591e+00 1.649397e+01 0 1.646634e+01 5.552597e-08 6.217271e+01 
9.410831e-02 2.862537e+00 2.862537e+00 6.596459e+00 2.471236e+01 0 2.467793e+01 5.552597e-08 6.217271e+01 
1.253332e-01 2.862531e+00 2.862531e+00 6.557231e+00 3.289383e+01 0 3.286364e+01 5.552597e-08 6.217271e+01 
1.564345e-01 2.862547e+00 2.862547e+00 6.507060e+00 4.102256e+01 0 4.101502e+01 5.552597e-08 6.217271e+01 
1.873813e-01 2.862604e+00 2.862604e+00 6.446145e+00 4.908147e+01 0 4.912390e+01 5.552597e-08 6.217271e+01 
2.181432e-01 2.862726e+00 2.862726e+00 6.374725e+00 5.705397e+01 0 5.718276e+01 5.552597e-08 6.217271e+01 
2.486899e-01 2.862939e+00 2.862939e+00 6.293084e+00 6.492681e+01 0 6.518498e+01 5.552597e-08 6.217271e+01 
2.789911e-01 2.863264e+00 2.863264e+00 6.201540e+00 7.269406e+01 0 7.312513e+01 5.552597e-08 6.217271e+01 
3.090170e-01 2.863709e+00 2.863709e+00 6.100456e+00 8.036178e+01 0 8.099914e+01 5.552597e-08 6.217271e+01 
3.387379e-01 2.864261e+00 2.864261e+00 5.990228e+00 8.795287e+01 0 8.880416e+01 5.552597e-08 6.217271e+01 
3.681246e-01 2.864863e+00 2.864863e+00 5.871290e+00 9.551133e+01 0 9.653811e+01 5.552597e-08 6.217271e+01 
3.971479e-01 2.865408e+00 2.865408e+00 5.744109e+00 1.031050e+02 0 1.041988e+02 5.552597e-08 6.217271e+01 
4.257793e-01 2.865718e+00 2.865718e+00 5.609185e+00 1.108262e+02 0 1.117826e+02 5.552597e-08 6.217271e+01 
4.539905e-01 2.865529e+00 2.865529e+00 5.467050e+00 1.187888e+02 0 1.192825e+02 5.552597e-08 6.217271e+01 
4.817537e-01 2.864485e+00 2.864485e+00 5.318267e+00 1.271233e+02 0 1.266866e+02 5.552597e-08 6.217271e+01 
5.090414e-01 2.862130e+00 2.862130e+00 5.163426e+00 1.359681e+02 0 1.339756e+02 5.552597e-08 6.217271e+01 
5.358268e-01 2.857914e+00 2.857914e+00 5.003145e+00 1.454590e+02 0 1.411216e+02 5.552597e-08 6.217271e+01 
5.620834e-01 2.851193e+00 2.851193e+00 4.838068e+00 1.557177e+02 0 1.480864e+02 5.552597e-08 6.217271e+01 
5.877853e-01 2.841251e+00 2.841251e+00 4.668864e+00 1.668405e+02 0 1.548212e+02 5.552597e-08 6.217271e+01 
6.129071e-01 2.827312e+00 2.827312e+00 4.496225e+00 1.788886e+02 0 1.612669e+02 5.552597e-08 6.217271e+01 
6.374240e-01 2.808562e+00 2.808562e+00 4.320861e+00 1.918802e+02 0 1.673550e+02 5.552597e-08 6.217271e+01 
6.613119e-01 2.784169e+00 2.784169e+00 4.143502e+00 2.057867e+02 0 1.730101e+02 5.552597e-08 6.217271e+01 
6.845471e-01 2.753297e+00 2.753297e+00 3.964893e+00 2.205312e+02 0 1.781516e+02 5.552597e-08 6.217271e+01 
7.071068e-01 2.715131e+00 2.715131e+00 3.785789e+00 2.359915e+02 0 1.826975e+02 5.552597e-08 6.217271e+01 
7.289686e-01 2.668881e+00 2.668881e+00 3.606952e+00 2.520050e+02 0 1.865667e+02 5.552597e-08 6.217271e+01 
7.501111e-01 2.613797e+00 2.613797e+00 3.429148e+00 2.683763e+02 0 1.896827e+02 5.552597e-08 6.217271e+01 
7.705132e-01 2.549183e+00 2.549183e+00 3.253138e+00 2.848869e+02 0 1.919757e+02 5.552597e-08 6.217271e+01 
7.901550e-01 2.474416e+00 2.474416e+00 3.079679e+00 3.013048e+02 0 1.933850e+02 5.552597e-08 6.217271e+01 
8.090170e-01 2.388972e+00 2.388972e+00 2.909512e+00 3.173954e+02 0 1.938598e+02 5.552597e-08 6.217271e+01 
8.270806e-01 2.292476e+00 2.292476e+00 2.743361e+00 3.329311e+02 0 1.933600e+02 5.552597e-08 6.217271e+01 
8.443279e-01 2.184772e+00 2.184772e+00 2.581925e+00 3.477007e+02 0 1.918557e+02 5.552597e-08 6.217271e+01 
8.607420e-01 2.066017e+00 2.066017e+00 2.425874e+00 3.615187e+02 0 1.893256e+02 5.552597e-08 6.217271e+01 
8.763067e-01 1.936806e+00 1.936806e+00 2.275841e+00 3.742319e+02 0 1.857551e+02 5.552597e-08 6.217271e+01 
8.910065e-01 1.798302e+00 1.798302e+00 2.132420e+00 3.857263e+02 0 1.811341e+02 5.552597e-08 6.217271e+01 
9.048271e-01 1.652375e+00 1.652375e+00 1.996159e+00 3.959312e+02 0 1.754538e+02 5.552597e-08 6.217271e+01 
9.177546e-01 1.501699e+00 1.501699e+00 1.867558e+00 4.048224e+02 0 1.687058e+02 5.552597e-08 6.217271e+01 
9.297765e-01 1.349776e+00 1.349776e+00 1.747065e+00 4.124215e+02 0 1.608823e+02 5.552597e-08 6.217271e+01 
9.408808e-01 1.200856e+00 1.200856e+00 1.635073e+00 4.187938e+02 0 1.519813e+02 5.552597e-08 6.217271e+01 
9.510565e-01 1.059690e+00 1.059690e+00 1.531924e+00 4.240415e+02 0 1.420178e+02 5.552597e-08 6.217271e+01 
9.602937e-01 9.311308e-01 9.311308e-01 1.437908e+00 4.282944e+02 0 1.310452e+02 5.552597e-08 6.217271e+01 
9.685832e-01 8.195629e-01 8.195629e-01 1.353265e+00 4.316976e+02 0 1.191882e+02 5.552597e-08 6.217271e+01 
9.759168e-01 7.282576e-01 7.282576e-01 1.278194e+00 4.343977e+02 0 1.066826e+02 5.552597e-08 6.217271e+01 
9.822873e-01 6.587639e-01 6.587639e-01 1.212854e+00 4.365291e+02 0 9.391176e+01 5.552597e-08 6.217271e+01 
9.876883e-01 6.105193e-01 6.105193e-01 1.157372e+00 4.382041e+02 0 8.141802e+01 5.552597e-08 6.217271e+01 
9.921147e-01 5.808545e-01 5.808545e-01 1.111850e+00 4.395054e+02 0 6.986830e+01 5.552597e-08 6.217271e+01 
9.955620e-01 5.654787e-01 5.654787e-01 1.076366e+00 4.404877e+02 0 5.997332e+01 5.552597e-08 6.217271e+01 
9.980267e-01 5.593775e-01 5.593775e-01 1.050978e+00 4.411780e+02 0 5.238683e+01 5.552597e-08 6.217271e+01 
9.995066e-01 5.579065e-01 5.579065e-01 1.035729e+00 4.415948e+02 0 4.762099e+01 5.552597e-08 6.217271e+01 
1 5.578061e-01 5.578061e-01 1.030643e+00 4.417367e+02 0 4.599625e+01 5.552597e-08 6.217271e+01 
ZONE T="0.003", I=101
-1 5.050962e-01 5.050962e-01 9.903231e-01 -3.715570e+02 0 -4.002070e+01 1.646011e-07 5.804058e+01 
-9.995066e-01 5.051884e-01 5.051884e-01 9.952100e-01 -3.714770e+02 0 -4.151322e+01 1.646011e-07 5.804058e+01 
-9.980267e-01 5.065393e-01 5.065393e-01 1.009863e+00 -3.712368e+02 0 -4.588647e+01 1.646011e-07 5.804058e+01 
-9.955620e-01 5.121409e-01 5.121409e-01 1.034258e+00 -3.708344e+02 0 -5.283311e+01 1.646011e-07 5.804058e+01 
-9.921147e-01 5.262519e-01 5.262519e-01 1.068358e+00 -3.702620e+02 0 -6.186518e+01 1.646011e-07 5.804058e+01 
-9.876883e-01 5.534636e-01 5.534636e-01 1.112105e+00 -3.695004e+02 0 -7.236550e+01 1.646011e-07 5.804058e+01 
-9.822873e-01 5.976975e-01 5.976975e-01 1.165427e+00 -3.685142e+02 0 -8.367096e+01 1.646011e-07 5.804058e+01 
-9.759168e-01 6.613892e-01 6.613892e-01 1.228228e+00 -3.672489e+02 0 -9.516890e+01 1.646011e-07 5.804058e+01 
-9.685832e-01 7.450543e-01 7.450543e-01 1.300391e+00 -3.656307e+02 0 -1.063720e+02 1.646011e-07 5.804058e+01 
-9.602937e-01 8.472967e-01 8.472967e-01 1.381765e+00 -3.635709e+02 0 -1.169477e+02 1.646011e-07 5.804058e+01 
-9.510565e-01 9.651719e-01 9.651719e-01 1.472167e+00 -3.609714e+02 0 -1.267045e+02 1.646011e-07 5.804058e+01 
-9.408808e-01 1.094745e+00 1.094745e+00 1.571371e+00 -3.577338e+02 0 -1.355557e+02 1.646011e-07 5.804058e+01 
-9.297765e-01 1.231680e+00 1.231680e+00 1.679109e+00 -3.537665e+02 0 -1.434789e+02 1.646011e-07 5.804058e+01 
-9.177546e-01 1.371747e+00 1.371747e+00 1.795063e+00 -3.489927e+02 0 -1.504852e+02 1.646011e-07 5.804058e+01 
-9.048271e-01 1.511186e+00 1.511186e+00 1.918866e+00 -3.433556e+02 0 -1.565970e+02 1.646011e-07 5.804058e+01 
-8.910065e-01 1.646918e+00 1.646918e+00 2.050102e+00 -3.368215e+02 0 -1.618371e+02 1.646011e-07 5.804058e+01 
-8.763067e-01 1.776612e+00 1.776612e+00 2.188305e+00 -3.293819e+02 0 -1.662234e+02 1.646011e-07 5.804058e+01 
-8.607420e-01 1.898659e+00 1.898659e+00 2.332964e+00 -3.210533e+02 0 -1.697679e+02 1.646011e-07 5.804058e+01 
-8.443279e-01 2.012069e+00 2.012069e+00 2.483524e+00 -3.118759e+02 0 -1.724786e+02 1.646011e-07 5.804058e+01 
-8.270806e-01 2.116350e+00 2.116350e+00 2.639390e+00 -3.019115e+02 0 -1.743618e+02 1.646011e-07 5.804058e+01 
-8.090170e-01 2.211376e+00 2.211376e+00 2.799932e+00 -2.912409e+02 0 -1.754247e+02 1.646011e-07 5.804058e+01 
-7.901550e-01 2.297276e+00 2.297276e+00 2.964490e+00 -2.799612e+02 0 -1.756781e+02 1.646011e-07 5.804058e+01 
-7.705132e-01 2.374342e+00 2.374342e+00 3.132375e+00 -2.681818e+02 0 -1.751382e+02 1.646011e-07 5.804058e+01 
-7.501111e-01 2.442965e+00 2.442965e+00 3.302881e+00 -2.560215e+02 0 -1.738277e+02 1.646011e-07 5.804058e+01 
-7.289686e-01 2.503590e+00 2.503590e+00 3.475281e+00 -2.436044e+02 0 -1.717768e+02 1.646011e-07 5.804058e+01 
-7.071068e-01 2.556695e+00 2.556695e+00 3.648841e+00 -2.310560e+02 0 -1.690226e+02 1.646011e-07 5.804058e+01 
-6.845471e-01 2.602774e+00 2.602774e+00 3.822816e+00 -2.184989e+02 0 -1.656093e+02 1.646011e-07 5.804058e+01 
-6.613119e-01 2.642336e+00 2.642336e+00 3.996463e+00 -2.060491e+02 0 -1.615865e+02 1.646011e-07 5.804058e+01 
-6.374240e-01 2.675899e+00 2.675899e+00 4.169039e+00 -1.938116e+02 0 -1.570084e+02 1.646011e-07 5.804058e+01 
-6.129071e-01 2.703994e+00 2.703994e+00 4.339809e+00 -1.818769e+02 0 -1.519316e+02 1.646011e-07 5.804058e+01 
-5.877853e-01 2.727157e+00 2.727157e+00 4.508049e+00 -1.703178e+02 0 -1.464138e+02 1.646011e-07 5.804058e+01 
-5.620834e-01 2.745930e+00 2.745930e+00 4.673050e+00 -1.591876e+02 0 -1.405122e+02 1.646011e-07 5.804058e+01 
-5.358268e-01 2.760853e+00 2.760853e+00 4.834120e+00 -1.485182e+02 0 -1.342811e+02 1.646011e-07 5.804058e+01 
-5.090414e-01 2.772457e+00 2.772457e+00 4.990590e+00 -1.383206e+02 0 -1.277715e+02 1.646011e-07 5.804058e+01 
-4.817537e-01 2.781254e+00 2.781254e+00 5.141813e+00 -1.285855e+02 0 -1.210291e+02 1.646011e-07 5.804058e+01 
-4.539905e-01 2.787727e+00 2.787727e+00 5.287170e+00 -1.192861e+02 0 -1.140942e+02 1.646011e-07 5.804058e+01 
-4.257793e-01 2.792323e+00 2.792323e+00 5.426068e+00 -1.103807e+02 0 -1.070010e+02 1.646011e-07 5.804058e+01 
-3.971479e-01 2.795445e+00 2.795445e+00 5.557947e+00 -1.018170e+02 0 -9.977780e+01 1.646011e-07 5.804058e+01 
-3.681246e-01 2.797447e+00 2.797447e+00 5.682276e+00 -9.353635e+01 0 -9.244706e+01 1.646011e-07 5.804058e+01 
-3.387379e-01 2.798628e+00 2.798628e+00 5.798558e+00 -8.547813e+01 0 -8.502642e+01 1.646011e-07 5.804058e+01 
-3.090170e-01 2.799234e+00 2.799234e+00 5.906330e+00 -7.758346e+01 0 -7.752935e+01 1.646011e-07 5.804058e+01 
-2.789911e-01 2.799463e+00 2.799463e+00 6.005165e+00 -6.979870e+01 0 -6.996605e+01 1.646011e-07 5.804058e+01 
-2.486899e-01 2.799461e+00 2.799461e+00 6.094671e+00 -6.207776e+01 0 -6.234446e+01 1.646011e-07 5.804058e+01 
-2.181432e-01 2.799337e+00 2.799337e+00 6.174495e+00 -5.438360e+01 0 -5.467106e+01 1.646011e-07 5.804058e+01 
-1.873813e-01 2.799162e+00 2.799162e+00 6.244324e+00 -4.668874e+01 0 -4.695159e+01 1.646011e-07 5.804058e+01 
-1.564345e-01 2.798983e+00 2.798983e+00 6.303880e+00 -3.897501e+01 0 -3.919161e+01 1.646011e-07 5.804058e+01 
-1.253332e-01 2.798826e+00 2.798826e+00 6.352932e+00 -3.123264e+01 0 -3.139687e+01 1.646011e-07 5.804058e+01 
-9.410831e-02 2.798701e+00 2.798701e+00 6.391284e+00 -2.345900e+01 0 -2.357351e+01 1.646011e-07 5.804058e+01 
-6.279052e-02 2.798613e+00 2.798613e+00 6.418787e+00 -1.565711e+01 0 -1.572816e+01 1.646011e-07 5.804058e+01 
-3.141076e-02 2.798562e+00 2.798562e+00 6.435332e+00 -7.834151e+00 0 -7.867860e+00 1.646011e-07 5.804058e+01 
-6.123234e-17 2.798545e+00 2.798545e+00 6.440854e+00 3.534953e-08 0 -7.111475e-08 1.646011e-07 5.804058e+01 
3.141076e-02 2.798562e+00 2.798562e+00 6.435332e+00 7.834151e+00 0 7.867860e+00 1.646011e-07 5.804058e+01 
6.279052e-02 2.798613e+00 2.798613e+00 6.418787e+00 1.565711e+01 0 1.572816e+01 1.646011e-07 5.804058e+01 
9.410831e-02 2.798701e+00 2.798701e+00 6.391284e+00 2.345900e+01 0 2.357351e+01 1.646011e-07 5.804058e+01 
1.253332e-01 2.798826e+00 2.798826e+00 6.352932e+00 3.123264e+01 0 3.139687e+01 1.646011e-07 5.804058e+01 
1.564345e-01 2.798983e+00 2.798983e+00 6.303880e+00 3.897501e+01 0 3.919161e+01 1.646011e-07 5.804058e+01 
1.873813e-01 2.799162e+00 2.799162e+00 6.244324e+00 4.668874e+01 0 4.695159e+01 1.646011e-07 5.804058e+01 
2.181432e-01 2.799337e+00 2.799337e+00 6.174495e+00 5.438360e+01 0 5.467106e+01 1.646011e-07 5.804058e+01 
2.486899e-01 2.799461e+00 2.799461e+00 6.094671e+00 6.207776e+01 0 6.234446e+01 1.646011e-07 5.804058e+01 
2.789911e-01 2.799463e+00 2.799463e+00 6.005165e+00 6.979870e+01 0 6.996605e+01 1.646011e-07 5.804058e+01 
3.090170e-01 2.799234e+00 2.799234e+00 5.906330e+00 7.758346e+01 0 7.752935e+01 1.646011e-07 5.804058e+01 
3.387379e-01 2.798628e+00 2.798628e+00 5.798558e+00 8.547813e+01 0 8.502642e+01 1.646011e-07 5.804058e+01 
3.681246e-01 2.797447e+00 2.797447e+00 5.682276e+00 9.353635e+01 0 9.244706e+01 1.646011e-07 5.804058e+01 
3.971479e-01 2.795445e+00 2.795445e+00 5.557947e+00 1.018170e+02 0 9.977780e+01 1.646011e-07 5.804058e+01 
4.257793e-01 2.792323e+00 2.792323e+00 5.426068e+00 1.103807e+02 0 1.070010e+02 1.646011e-07 5.804058e+01 
4.539905e-01 2.787727e+00 2.787727e+00 5.287170e+00 1.192861e+02 0 1.140942e+02 1.646011e-07 5.804058e+01 
4.817537e-01 2.781254e+00 2.781254e+00 5.141813e+00 1.285855e+02 0 1.210291e+02 1.646011e-07 5.804058e+01 
5.090414e-01 2.772457e+00 2.772457e+00 4.990590e+00 1.383206e+02 0 1.277715e+02 1.646011e-07 5.804058e+01 
5.358268e-01 2.760853e+00 2.760853e+00 4.834120e+00 1.485182e+02 0 1.342811e+02 1.646011e-07 5.804058e+01 
5.620834e-01 2.745930e+00 2.745930e+00 4.673050e+00 1.591876e+02 0 1.405122e+02 1.646011e-07 5.804058e+01 
5.877853e-01 2.727157e+00 2.727157e+00 4.508049e+00 1.703178e+02 0 1.464138e+02 1.646011e-07 5.804058e+01 