TITLE = "2 species of PNP-Steric with high order term" 
VARIABLES = "X" "Conc1" "Conc2" "phi" "Current_x""I_ext" "I_PNP" "CURRENT" "ENERGY" "
ZONE T="4.2609e-08", I=101
-1 4.089038e+01 4.089201e+01 -1.000000e-04 4.835046e-11 0 -1.640513e-11 -1.160444e-14 1.318335e+01 
-9.995066e-01 9.684130e+00 9.684418e+00 -1.000000e-04 3.761482e-12 0 6.988004e-13 -1.160444e-14 1.318335e+01 
-9.980267e-01 5.452903e-01 5.451847e-01 -1.000000e-04 -8.989307e-12 0 -4.781159e-12 -1.160444e-14 1.318335e+01 
-9.955620e-01 4.340366e+00 4.340424e+00 -1.000000e-04 1.494036e-12 0 2.838661e-13 -1.160444e-14 1.318335e+01 
-9.921147e-01 2.134792e+00 2.134755e+00 -1.000000e-04 1.112305e-12 0 3.352307e-12 -1.160444e-14 1.318335e+01 
-9.876883e-01 3.612887e+00 3.612913e+00 -1.000000e-04 3.243851e-12 0 -1.448632e-12 -1.160444e-14 1.318335e+01 
-9.822873e-01 2.539362e+00 2.539342e+00 -1.000000e-04 -3.246256e-12 0 -2.133563e-13 -1.160444e-14 1.318335e+01 
-9.759168e-01 3.360714e+00 3.360729e+00 -1.000000e-04 -1.887816e-12 0 -1.079793e-12 -1.160444e-14 1.318335e+01 
-9.685832e-01 2.708903e+00 2.708890e+00 -1.000000e-04 4.214351e-12 0 7.416035e-13 -1.160444e-14 1.318335e+01 
-9.602937e-01 3.240383e+00 3.240393e+00 -1.000000e-04 -1.579941e-12 0 -2.768108e-13 -1.160444e-14 1.318335e+01 
-9.510565e-01 2.797866e+00 2.797857e+00 -1.000000e-04 -9.101245e-13 0 -5.288284e-15 -1.160444e-14 1.318335e+01 
-9.408808e-01 3.172476e+00 3.172483e+00 -1.000000e-04 1.014170e-12 0 4.484828e-13 -1.160444e-14 1.318335e+01 
-9.297765e-01 2.851050e+00 2.851043e+00 -1.000000e-04 1.338881e-12 0 -1.315931e-13 -1.160444e-14 1.318335e+01 
-9.177546e-01 3.129932e+00 3.129937e+00 -1.000000e-04 -3.981583e-12 0 -9.712608e-13 -1.160444e-14 1.318335e+01 
-9.048271e-01 2.885693e+00 2.885688e+00 -1.000000e-04 3.063994e-12 0 7.460942e-13 -1.160444e-14 1.318335e+01 
-8.910065e-01 3.101293e+00 3.101297e+00 -1.000000e-04 -9.318593e-13 0 -3.553298e-13 -1.160444e-14 1.318335e+01 
-8.763067e-01 2.909680e+00 2.909676e+00 -1.000000e-04 -1.020800e-12 0 2.635316e-13 -1.160444e-14 1.318335e+01 
-8.607420e-01 3.080970e+00 3.080974e+00 -1.000000e-04 1.166171e-12 0 -3.568259e-13 -1.160444e-14 1.318335e+01 
-8.443279e-01 2.927072e+00 2.927069e+00 -1.000000e-04 -8.534526e-13 0 1.672552e-13 -1.160444e-14 1.318335e+01 
-8.270806e-01 3.065952e+00 3.065955e+00 -1.000000e-04 1.202590e-12 0 1.561641e-14 -1.160444e-14 1.318335e+01 
-8.090170e-01 2.940146e+00 2.940144e+00 -1.000000e-04 -1.537602e-12 0 -8.166539e-14 -1.160444e-14 1.318335e+01 
-7.901550e-01 3.054486e+00 3.054489e+00 -1.000000e-04 8.782723e-13 0 1.292265e-12 -1.160444e-14 1.318335e+01 
-7.705132e-01 2.950269e+00 2.950267e+00 -1.000000e-04 1.210572e-12 0 -1.069701e-12 -1.160444e-14 1.318335e+01 
-7.501111e-01 3.045494e+00 3.045496e+00 -1.000000e-04 -2.520337e-12 0 -6.203029e-13 -1.160444e-14 1.318335e+01 
-7.289686e-01 2.958302e+00 2.958301e+00 -1.000000e-04 2.491334e-12 0 1.261573e-12 -1.160444e-14 1.318335e+01 
-7.071068e-01 3.038278e+00 3.038280e+00 -1.000000e-04 -5.941748e-13 0 -2.688154e-13 -1.160444e-14 1.318335e+01 
-6.845471e-01 2.964817e+00 2.964815e+00 -1.000000e-04 -5.636512e-13 0 3.046480e-13 -1.160444e-14 1.318335e+01 
-6.613119e-01 3.032370e+00 3.032371e+00 -1.000000e-04 1.290641e-13 0 -1.200700e-12 -1.160444e-14 1.318335e+01 
-6.374240e-01 2.970200e+00 2.970198e+00 -1.000000e-04 -3.790040e-13 0 1.105315e-12 -1.160444e-14 1.318335e+01 
-6.129071e-01 3.027444e+00 3.027445e+00 -1.000000e-04 -1.831345e-13 0 -9.259357e-13 -1.160444e-14 1.318335e+01 
-5.877853e-01 2.974726e+00 2.974725e+00 -1.000000e-04 9.734751e-15 0 -2.823956e-13 -1.160444e-14 1.318335e+01 
-5.620834e-01 3.023268e+00 3.023269e+00 -1.000000e-04 8.134775e-13 0 1.417152e-12 -1.160444e-14 1.318335e+01 
-5.358268e-01 2.978594e+00 2.978593e+00 -1.000000e-04 -5.242123e-13 0 -1.048679e-12 -1.160444e-14 1.318335e+01 
-5.090414e-01 3.019671e+00 3.019672e+00 -1.000000e-04 -7.224761e-13 0 -1.932067e-13 -1.160444e-14 1.318335e+01 
-4.817537e-01 2.981951e+00 2.981950e+00 -1.000000e-04 1.271762e-12 0 1.047074e-12 -1.160444e-14 1.318335e+01 
-4.539905e-01 3.016526e+00 3.016527e+00 -1.000000e-04 -1.451701e-14 0 -9.366443e-13 -1.160444e-14 1.318335e+01 
-4.257793e-01 2.984908e+00 2.984908e+00 -1.000000e-04 -1.476617e-13 0 1.047999e-12 -1.160444e-14 1.318335e+01 
-3.971479e-01 3.013735e+00 3.013735e+00 -1.000000e-04 1.325072e-13 0 -5.054674e-13 -1.160444e-14 1.318335e+01 
-3.681246e-01 2.987554e+00 2.987553e+00 -1.000000e-04 -6.285057e-14 0 2.780112e-13 -1.160444e-14 1.318335e+01 
-3.387379e-01 3.011219e+00 3.011220e+00 -1.000000e-04 -2.947298e-15 0 -4.660269e-13 -1.160444e-14 1.318335e+01 
-3.090170e-01 2.989955e+00 2.989955e+00 -1.000000e-04 -9.692942e-13 0 -6.590450e-13 -1.160444e-14 1.318335e+01 
-2.789911e-01 3.008918e+00 3.008918e+00 -1.000000e-04 4.264933e-13 0 1.035722e-13 -1.160444e-14 1.318335e+01 
-2.486899e-01 2.992169e+00 2.992169e+00 -1.000000e-04 -9.593323e-13 0 -1.515585e-13 -1.160444e-14 1.318335e+01 
-2.181432e-01 3.006779e+00 3.006780e+00 -1.000000e-04 4.300747e-13 0 2.094736e-13 -1.160444e-14 1.318335e+01 
-1.873813e-01 2.994242e+00 2.994242e+00 -1.000000e-04 1.395695e-12 0 7.964022e-13 -1.160444e-14 1.318335e+01 
-1.564345e-01 3.004761e+00 3.004761e+00 -1.000000e-04 -4.928280e-13 0 -4.074483e-13 -1.160444e-14 1.318335e+01 
-1.253332e-01 2.996215e+00 2.996215e+00 -1.000000e-04 -1.071024e-12 0 -3.504300e-13 -1.160444e-14 1.318335e+01 
-9.410831e-02 3.002825e+00 3.002825e+00 -1.000000e-04 1.424554e-12 0 6.015331e-13 -1.160444e-14 1.318335e+01 
-6.279052e-02 2.998123e+00 2.998123e+00 -1.000000e-04 -7.059056e-13 0 -3.618108e-13 -1.160444e-14 1.318335e+01 
-3.141076e-02 3.000936e+00 3.000936e+00 -1.000000e-04 -1.980181e-14 0 1.918615e-13 -1.160444e-14 1.318335e+01 
-1.110223e-16 3.000000e+00 3.000000e+00 -1.000000e-04 -1.518212e-13 0 2.257680e-13 -1.160444e-14 1.318335e+01 
3.141076e-02 2.999064e+00 2.999064e+00 -1.000000e-04 8.295034e-13 0 8.561989e-14 -1.160444e-14 1.318335e+01 
6.279052e-02 3.001877e+00 3.001877e+00 -1.000000e-04 -1.385104e-12 0 -1.252722e-12 -1.160444e-14 1.318335e+01 
9.410831e-02 2.997175e+00 2.997175e+00 -1.000000e-04 8.979954e-13 0 1.140242e-12 -1.160444e-14 1.318335e+01 
1.253332e-01 3.003785e+00 3.003785e+00 -1.000000e-04 8.395787e-13 0 3.248108e-13 -1.160444e-14 1.318335e+01 
1.564345e-01 2.995239e+00 2.995239e+00 -1.000000e-04 -7.014698e-13 0 -6.816083e-13 -1.160444e-14 1.318335e+01 
1.873813e-01 3.005758e+00 3.005758e+00 -1.000000e-04 -6.984938e-13 0 -2.549118e-13 -1.160444e-14 1.318335e+01 
2.181432e-01 2.993221e+00 2.993220e+00 -1.000000e-04 -3.871649e-13 0 1.544288e-13 -1.160444e-14 1.318335e+01 
2.486899e-01 3.007831e+00 3.007831e+00 -1.000000e-04 1.541077e-12 0 4.778110e-13 -1.160444e-14 1.318335e+01 
2.789911e-01 2.991082e+00 2.991082e+00 -1.000000e-04 -1.051774e-12 0 -4.699128e-13 -1.160444e-14 1.318335e+01 
3.090170e-01 3.010045e+00 3.010045e+00 -1.000000e-04 1.029210e-12 0 4.628306e-13 -1.160444e-14 1.318335e+01 
3.387379e-01 2.988781e+00 2.988780e+00 -1.000000e-04 -8.325108e-13 0 2.652681e-13 -1.160444e-14 1.318335e+01 
3.681246e-01 3.012446e+00 3.012447e+00 -1.000000e-04 1.114904e-12 0 -1.271681e-13 -1.160444e-14 1.318335e+01 
3.971479e-01 2.986265e+00 2.986265e+00 -1.000000e-04 -1.019344e-12 0 4.987444e-14 -1.160444e-14 1.318335e+01 
4.257793e-01 3.015092e+00 3.015092e+00 -1.000000e-04 1.172008e-12 0 -1.130584e-13 -1.160444e-14 1.318335e+01 
4.539905e-01 2.983474e+00 2.983473e+00 -1.000000e-04 -6.767732e-13 0 2.506142e-13 -1.160444e-14 1.318335e+01 
4.817537e-01 3.018049e+00 3.018050e+00 -1.000000e-04 -7.351256e-13 0 -6.694877e-13 -1.160444e-14 1.318335e+01 
5.090414e-01 2.980329e+00 2.980328e+00 -1.000000e-04 1.873677e-13 0 -7.230530e-14 -1.160444e-14 1.318335e+01 
5.358268e-01 3.021406e+00 3.021407e+00 -1.000000e-04 4.100385e-13 0 4.722094e-13 -1.160444e-14 1.318335e+01 
5.620834e-01 2.976732e+00 2.976731e+00 -1.000000e-04 2.472049e-13 0 9.624133e-14 -1.160444e-14 1.318335e+01 
5.877853e-01 3.025274e+00 3.025275e+00 -1.000000e-04 -1.966350e-13 0 -1.747980e-13 -1.160444e-14 1.318335e+01 
6.129071e-01 2.972556e+00 2.972555e+00 -1.000000e-04 -2.663631e-13 0 2.474111e-13 -1.160444e-14 1.318335e+01 
6.374240e-01 3.029800e+00 3.029802e+00 -1.000000e-04 8.136799e-13 0 -2.405248e-13 -1.160444e-14 1.318335e+01 
6.613119e-01 2.967630e+00 2.967629e+00 -1.000000e-04 -9.161503e-13 0 -5.735078e-16 -1.160444e-14 1.318335e+01 
6.845471e-01 3.035183e+00 3.035185e+00 -1.000000e-04 9.473070e-14 0 -1.203392e-13 -1.160444e-14 1.318335e+01 
7.071068e-01 2.961722e+00 2.961720e+00 -1.000000e-04 7.543958e-13 0 1.986027e-13 -1.160444e-14 1.318335e+01 
7.289686e-01 3.041698e+00 3.041699e+00 -1.000000e-04 -1.478104e-12 0 -3.858126e-13 -1.160444e-14 1.318335e+01 
7.501111e-01 2.954506e+00 2.954504e+00 -1.000000e-04 1.684040e-12 0 -1.169640e-14 -1.160444e-14 1.318335e+01 
7.705132e-01 3.049731e+00 3.049733e+00 -1.000000e-04 -2.188874e-12 0 1.243487e-13 -1.160444e-14 1.318335e+01 
7.901550e-01 2.945514e+00 2.945511e+00 -1.000000e-04 2.346202e-13 0 -3.752487e-13 -1.160444e-14 1.318335e+01 
8.090170e-01 3.059854e+00 3.059856e+00 -1.000000e-04 7.811486e-13 0 -2.407132e-13 -1.160444e-14 1.318335e+01 
8.270806e-01 2.934048e+00 2.934045e+00 -1.000000e-04 -4.985855e-13 0 5.041116e-13 -1.160444e-14 1.318335e+01 
8.443279e-01 3.072928e+00 3.072931e+00 -1.000000e-04 -9.072506e-14 0 -5.072087e-13 -1.160444e-14 1.318335e+01 
8.607420e-01 2.919030e+00 2.919026e+00 -1.000000e-04 -9.178114e-13 0 4.079241e-15 -1.160444e-14 1.318335e+01 
8.763067e-01 3.090320e+00 3.090324e+00 -1.000000e-04 1.528125e-12 0 3.289983e-13 -1.160444e-14 1.318335e+01 
8.910065e-01 2.898707e+00 2.898703e+00 -1.000000e-04 7.027662e-13 0 -7.521206e-14 -1.160444e-14 1.318335e+01 
9.048271e-01 3.114307e+00 3.114312e+00 -1.000000e-04 -2.872835e-12 0 -3.095574e-13 -1.160444e-14 1.318335e+01 
9.177546e-01 2.870068e+00 2.870063e+00 -1.000000e-04 3.709298e-12 0 3.596250e-13 -1.160444e-14 1.318335e+01 
9.297765e-01 3.148950e+00 3.148957e+00 -1.000000e-04 -6.645126e-13 0 1.583253e-13 -1.160444e-14 1.318335e+01 
9.408808e-01 2.827524e+00 2.827517e+00 -1.000000e-04 -6.001601e-13 0 -7.036479e-13 -1.160444e-14 1.318335e+01 
9.510565e-01 3.202134e+00 3.202143e+00 -1.000000e-04 -1.129343e-12 0 4.234045e-13 -1.160444e-14 1.318335e+01 
9.602937e-01 2.759617e+00 2.759607e+00 -1.000000e-04 1.851757e-12 0 -3.992448e-13 -1.160444e-14 1.318335e+01 
9.685832e-01 3.291097e+00 3.291110e+00 -1.000000e-04 -2.306534e-12 0 6.645626e-13 -1.160444e-14 1.318335e+01 
9.759168e-01 2.639286e+00 2.639271e+00 -1.000000e-04 2.026378e-12 0 1.274166e-12 -1.160444e-14 1.318335e+01 
9.822873e-01 3.460638e+00 3.460658e+00 -1.000000e-04 8.121876e-13 0 -4.711922e-13 -1.160444e-14 1.318335e+01 
9.876883e-01 2.387113e+00 2.387087e+00 -1.000000e-04 -3.845144e-13 0 1.393945e-12 -1.160444e-14 1.318335e+01 
9.921147e-01 3.865208e+00 3.865245e+00 -1.000000e-04 -7.215574e-13 0 -2.268476e-12 -1.160444e-14 1.318335e+01 
9.955620e-01 1.659634e+00 1.659576e+00 -1.000000e-04 -3.945486e-13 0 -1.985887e-13 -1.160444e-14 1.318335e+01 
9.980267e-01 5.454710e+00 5.454815e+00 -1.000000e-04 4.701785e-12 0 2.275471e-12 -1.160444e-14 1.318335e+01 
9.995066e-01 -3.684130e+00 -3.684418e+00 -1.000000e-04 -9.310732e-12 0 9.749474e-13 -1.160444e-14 1.318335e+01 
1 -3.489038e+01 -3.489201e+01 -1.000000e-04 -4.041887e-11 0 1.337085e-11 -1.160444e-14 1.318335e+01 
ZONE T="8.5219e-08", I=101
-1 2.320461e+07 2.320654e+07 -1.000587e-04 -6.890896e+06 0 9.955781e+00 -2.572725e+02 1.323903e+01 
-9.995066e-01 4.881477e+06 4.881882e+06 -1.000587e-04 -4.990310e+05 0 -5.116419e+00 -2.572725e+02 1.323903e+01 
-9.980267e-01 -1.511888e+06 -1.512014e+06 -1.000586e-04 -1.425034e+04 0 -6.351892e-03 -2.572725e+02 1.323903e+01 
-9.955620e-01 7.952420e+05 7.953084e+05 -1.000584e-04 -1.326836e+04 0 7.166872e-01 -2.572725e+02 1.323903e+01 
-9.921147e-01 -4.998650e+05 -4.999068e+05 -1.000582e-04 1.352086e+03 0 -1.271087e-01 -2.572725e+02 1.323903e+01 
-9.876883e-01 3.482247e+05 3.482538e+05 -1.000580e-04 -2.502953e+03 0 1.779880e-01 -2.572725e+02 1.323903e+01 
-9.822873e-01 -2.584639e+05 -2.584855e+05 -1.000576e-04 7.717089e+02 0 -7.277746e-02 -2.572725e+02 1.323903e+01 
-9.759168e-01 2.005149e+05 2.005316e+05 -1.000573e-04 -9.384151e+02 0 8.235981e-02 -2.572725e+02 1.323903e+01 
-9.685832e-01 -1.606123e+05 -1.606257e+05 -1.000568e-04 4.385691e+02 0 -4.582585e-02 -2.572725e+02 1.323903e+01 
-9.602937e-01 1.318517e+05 1.318627e+05 -1.000564e-04 -4.743417e+02 0 4.800392e-02 -2.572725e+02 1.323903e+01 
-9.510565e-01 -1.103288e+05 -1.103380e+05 -1.000558e-04 2.748782e+02 0 -3.132812e-02 -2.572725e+02 1.323903e+01 
-9.408808e-01 9.377150e+04 9.377932e+04 -1.000552e-04 -2.828824e+02 0 3.166289e-02 -2.572725e+02 1.323903e+01 
-9.297765e-01 -8.070782e+04 -8.071456e+04 -1.000546e-04 1.866222e+02 0 -2.275675e-02 -2.572725e+02 1.323903e+01 
-9.177546e-01 7.021620e+04 7.022206e+04 -1.000539e-04 -1.873732e+02 0 2.257537e-02 -2.572725e+02 1.323903e+01 
-9.048271e-01 -6.162798e+04 -6.163313e+04 -1.000531e-04 1.347072e+02 0 -1.730080e-02 -2.572725e+02 1.323903e+01 
-8.910065e-01 5.451708e+04 5.452163e+04 -1.000523e-04 -1.334800e+02 0 1.698712e-02 -2.572725e+02 1.323903e+01 
-8.763067e-01 -4.853519e+04 -4.853925e+04 -1.000514e-04 1.019818e+02 0 -1.362502e-02 -2.572725e+02 1.323903e+01 
-8.607420e-01 4.346863e+04 4.347226e+04 -1.000505e-04 -1.003313e+02 0 1.330032e-02 -2.572725e+02 1.323903e+01 
-8.443279e-01 -3.911492e+04 -3.911819e+04 -1.000495e-04 8.020146e+01 0 -1.103614e-02 -2.572725e+02 1.323903e+01 
-8.270806e-01 3.536235e+04 3.536531e+04 -1.000485e-04 -7.860632e+01 0 1.073812e-02 -2.572725e+02 1.323903e+01 
-8.090170e-01 -3.208168e+04 -3.208437e+04 -1.000475e-04 6.506765e+01 0 -9.146983e-03 -2.572725e+02 1.323903e+01 
-7.901550e-01 2.921455e+04 2.921699e+04 -1.000464e-04 -6.366245e+01 0 8.884797e-03 -2.572725e+02 1.323903e+01 
-7.705132e-01 -2.667142e+04 -2.667366e+04 -1.000452e-04 5.418278e+01 0 -7.728168e-03 -2.572725e+02 1.323903e+01 
-7.501111e-01 2.442380e+04 2.442585e+04 -1.000440e-04 -5.298732e+01 0 7.501088e-03 -2.572725e+02 1.323903e+01 
-7.289686e-01 -2.240501e+04 -2.240690e+04 -1.000428e-04 4.613269e+01 0 -6.637010e-03 -2.572725e+02 1.323903e+01 
-7.071068e-01 2.060422e+04 2.060595e+04 -1.000415e-04 -4.513001e+01 0 6.441199e-03 -2.572725e+02 1.323903e+01 
-6.845471e-01 -1.896860e+04 -1.897020e+04 -1.000402e-04 4.004368e+01 0 -5.781092e-03 -2.572725e+02 1.323903e+01 
-6.613119e-01 1.749822e+04 1.749969e+04 -1.000388e-04 -3.920752e+01 0 5.612095e-03 -2.572725e+02 1.323903e+01 
-6.374240e-01 -1.614899e+04 -1.615035e+04 -1.000374e-04 3.535454e+01 0 -5.098477e-03 -2.572725e+02 1.323903e+01 
-6.129071e-01 1.492798e+04 1.492924e+04 -1.000360e-04 -3.465893e+01 0 4.952111e-03 -2.572725e+02 1.323903e+01 
-5.877853e-01 -1.379681e+04 -1.379797e+04 -1.000345e-04 3.169273e+01 0 -4.546432e-03 -2.572725e+02 1.323903e+01 
-5.620834e-01 1.276718e+04 1.276826e+04 -1.000330e-04 -3.111501e+01 0 4.419055e-03 -2.572725e+02 1.323903e+01 
-5.358268e-01 -1.180455e+04 -1.180555e+04 -1.000314e-04 2.880410e+01 0 -4.094731e-03 -2.572725e+02 1.323903e+01 
-5.090414e-01 1.092378e+04 1.092471e+04 -1.000299e-04 -2.832547e+01 0 3.983273e-03 -2.572725e+02 1.323903e+01 
-4.817537e-01 -1.009296e+04 -1.009381e+04 -1.000283e-04 2.651117e+01 0 -3.721531e-03 -2.572725e+02 1.323903e+01 
-4.539905e-01 9.329155e+03 9.329946e+03 -1.000266e-04 -2.611644e+01 0 3.623441e-03 -2.572725e+02 1.323903e+01 
-4.257793e-01 -8.602305e+03 -8.603036e+03 -1.000250e-04 2.468774e+01 0 -3.410754e-03 -2.572725e+02 1.323903e+01 
-3.971479e-01 7.931053e+03 7.931727e+03 -1.000233e-04 -2.436479e+01 0 3.323918e-03 -2.572725e+02 1.323903e+01 
-3.681246e-01 -7.286648e+03 -7.287268e+03 -1.000216e-04 2.324279e+01 0 -3.150376e-03 -2.572725e+02 1.323903e+01 
-3.387379e-01 6.688861e+03 6.689431e+03 -1.000199e-04 -2.298207e+01 0 3.073045e-03 -2.572725e+02 1.323903e+01 
-3.090170e-01 -6.109901e+03 -6.110423e+03 -1.000181e-04 2.211012e+01 0 -2.931289e-03 -2.572725e+02 1.323903e+01 
-2.789911e-01 5.570357e+03 5.570832e+03 -1.000164e-04 -2.190421e+01 0 2.862007e-03 -2.572725e+02 1.323903e+01 
-2.486899e-01 -5.043137e+03 -5.043568e+03 -1.000146e-04 2.124155e+01 0 -2.746518e-03 -2.572725e+02 1.323903e+01 
-2.181432e-01 4.549425e+03 4.549814e+03 -1.000128e-04 -2.108478e+01 0 2.684066e-03 -2.572725e+02 1.323903e+01 
-1.873813e-01 -4.062640e+03 -4.062988e+03 -1.000110e-04 2.060237e+01 0 -2.590684e-03 -2.572725e+02 1.323903e+01 
-1.564345e-01 3.604401e+03 3.604709e+03 -1.000092e-04 -2.049055e+01 0 2.534032e-03 -2.572725e+02 1.323903e+01 
-1.253332e-01 -3.148492e+03 -3.148763e+03 -1.000074e-04 2.016830e+01 0 -2.459624e-03 -2.572725e+02 1.323903e+01 
-9.410831e-02 2.716843e+03 2.717076e+03 -1.000055e-04 -2.009850e+01 0 2.407891e-03 -2.572725e+02 1.323903e+01 
-6.279052e-02 -2.283495e+03 -2.283691e+03 -1.000037e-04 1.992348e+01 0 -2.350120e-03 -2.572725e+02 1.323903e+01 
-3.141076e-02 1.870586e+03 1.870746e+03 -1.000018e-04 -1.989390e+01 0 2.302539e-03 -2.572725e+02 1.323903e+01 
-1.110223e-16 -1.452325e+03 -1.452450e+03 -1.000000e-04 1.985926e+01 0 -2.259708e-03 -2.572725e+02 1.323903e+01 
3.141076e-02 1.050979e+03 1.051069e+03 -9.999816e-05 -1.986916e+01 0 2.215598e-03 -2.572725e+02 1.323903e+01 
6.279052e-02 -6.408462e+02 -6.409014e+02 -9.999632e-05 1.997357e+01 0 -2.186544e-03 -2.572725e+02 1.323903e+01 
9.410831e-02 2.442462e+02 2.442665e+02 -9.999448e-05 -2.002318e+01 0 2.145283e-03 -2.572725e+02 1.323903e+01 
1.253332e-01 1.645030e+02 1.645176e+02 -9.999264e-05 2.027069e+01 0 -2.129312e-03 -2.572725e+02 1.323903e+01 
1.564345e-01 -5.630984e+02 -5.631483e+02 -9.999082e-05 -2.036130e+01 0 2.090310e-03 -2.572725e+02 1.323903e+01 
1.873813e-01 9.772742e+02 9.773596e+02 -9.998900e-05 2.076169e+01 0 -2.087165e-03 -2.572725e+02 1.323903e+01 
2.181432e-01 -1.384816e+03 -1.384938e+03 -9.998720e-05 -2.089564e+01 0 2.049840e-03 -2.572725e+02 1.323903e+01 
2.486899e-01 1.811588e+03 1.811746e+03 -9.998541e-05 2.146525e+01 0 -2.059702e-03 -2.572725e+02 1.323903e+01 
2.789911e-01 -2.235544e+03 -2.235741e+03 -9.998363e-05 -2.164608e+01 0 2.023444e-03 -2.572725e+02 1.323903e+01 
3.090170e-01 2.682766e+03 2.683001e+03 -9.998187e-05 2.240920e+01 0 -2.046964e-03 -2.572725e+02 1.323903e+01 
3.387379e-01 -3.131475e+03 -3.131751e+03 -9.998012e-05 -2.264181e+01 0 2.011099e-03 -2.572725e+02 1.323903e+01 
3.681246e-01 3.608078e+03 3.608395e+03 -9.997840e-05 2.363294e+01 0 -2.049471e-03 -2.572725e+02 1.323903e+01 
3.971479e-01 -4.091189e+03 -4.091549e+03 -9.997669e-05 -2.392384e+01 0 2.013208e-03 -2.572725e+02 1.323903e+01 
4.257793e-01 4.607677e+03 4.608083e+03 -9.997501e-05 2.519104e+01 0 -2.068288e-03 -2.572725e+02 1.323903e+01 
4.539905e-01 -5.136710e+03 -5.137164e+03 -9.997336e-05 -2.554867e+01 0 2.030647e-03 -2.572725e+02 1.323903e+01 
4.817537e-01 5.705815e+03 5.706318e+03 -9.997173e-05 2.715874e+01 0 -2.105141e-03 -2.572725e+02 1.323903e+01 
5.090414e-01 -6.294933e+03 -6.295490e+03 -9.997013e-05 -2.759387e+01 0 2.064842e-03 -2.572725e+02 1.323903e+01 
5.358268e-01 6.932511e+03 6.933124e+03 -9.996856e-05 2.964027e+01 0 -2.162605e-03 -2.572725e+02 1.323903e+01 
5.620834e-01 -7.599580e+03 -7.600254e+03 -9.996701e-05 -3.016649e+01 0 2.117904e-03 -2.572725e+02 1.323903e+01 
5.877853e-01 8.325888e+03 8.326626e+03 -9.996551e-05 3.278164e+01 0 -2.244386e-03 -2.572725e+02 1.323903e+01 
6.129071e-01 -9.094014e+03 -9.094822e+03 -9.996403e-05 -3.341590e+01 0 2.192808e-03 -2.572725e+02 1.323903e+01 
6.374240e-01 9.935564e+03 9.936447e+03 -9.996259e-05 3.679092e+01 0 -2.355757e-03 -2.572725e+02 1.323903e+01 
6.613119e-01 -1.083535e+04 -1.083632e+04 -9.996119e-05 -3.755395e+01 0 2.293668e-03 -2.572725e+02 1.323903e+01 
6.845471e-01 1.182770e+04 1.182875e+04 -9.995983e-05 4.197112e+01 0 -2.504248e-03 -2.572725e+02 1.323903e+01 
7.071068e-01 -1.290072e+04 -1.290187e+04 -9.995850e-05 -4.288741e+01 0 2.426120e-03 -2.572725e+02 1.323903e+01 
7.289686e-01 1.409277e+04 1.409402e+04 -9.995722e-05 4.877552e+01 0 -2.700741e-03 -2.572725e+02 1.323903e+01 
7.501111e-01 -1.539695e+04 -1.539833e+04 -9.995598e-05 -4.987185e+01 0 2.597870e-03 -2.572725e+02 1.323903e+01 
7.705132e-01 1.685787e+04 1.685937e+04 -9.995478e-05 5.790455e+01 0 -2.961289e-03 -2.572725e+02 1.323903e+01 
7.901550e-01 -1.847639e+04 -1.847805e+04 -9.995363e-05 -5.920446e+01 0 2.819441e-03 -2.572725e+02 1.323903e+01 
8.090170e-01 2.030703e+04 2.030885e+04 -9.995252e-05 7.048354e+01 0 -3.310225e-03 -2.572725e+02 1.323903e+01 
8.270806e-01 -2.236331e+04 -2.236532e+04 -9.995146e-05 -7.199102e+01 0 3.105113e-03 -2.572725e+02 1.323903e+01 
8.443279e-01 2.471616e+04 2.471838e+04 -9.995045e-05 8.840809e+01 0 -3.785757e-03 -2.572725e+02 1.323903e+01 
8.607420e-01 -2.740057e+04 -2.740303e+04 -9.994949e-05 -9.006142e+01 0 3.473836e-03 -2.572725e+02 1.323903e+01 
8.763067e-01 3.051614e+04 3.051888e+04 -9.994857e-05 1.150628e+02 0 -4.450576e-03 -2.572725e+02 1.323903e+01 
8.910065e-01 -3.413644e+04 -3.413951e+04 -9.994771e-05 -1.166018e+02 0 3.948976e-03 -2.572725e+02 1.323903e+01 
9.048271e-01 3.841436e+04 3.841781e+04 -9.994690e-05 1.569494e+02 0 -5.413398e-03 -2.572725e+02 1.323903e+01 
9.177546e-01 -4.349776e+04 -4.350168e+04 -9.994614e-05 -1.575107e+02 0 4.552294e-03 -2.572725e+02 1.323903e+01 
9.297765e-01 4.964676e+04 4.965124e+04 -9.994544e-05 2.277984e+02 0 -6.876433e-03 -2.572725e+02 1.323903e+01 
9.408808e-01 -5.716578e+04 -5.717094e+04 -9.994478e-05 -2.245503e+02 0 5.273176e-03 -2.572725e+02 1.323903e+01 
9.510565e-01 6.655416e+04 6.656017e+04 -9.994419e-05 3.605438e+02 0 -9.251409e-03 -2.572725e+02 1.323903e+01 
9.602937e-01 -7.848787e+04 -7.849497e+04 -9.994365e-05 -3.433231e+02 0 5.927265e-03 -2.572725e+02 1.323903e+01 
9.685832e-01 9.408099e+04 9.408950e+04 -9.994316e-05 6.498677e+02 0 -1.348124e-02 -2.572725e+02 1.323903e+01 
9.759168e-01 -1.150500e+05 -1.150605e+05 -9.994273e-05 -5.745842e+02 0 5.442506e-03 -2.572725e+02 1.323903e+01 
9.822873e-01 1.444488e+05 1.444619e+05 -9.994235e-05 1.455983e+03 0 -2.205482e-02 -2.572725e+02 1.323903e+01 
9.876883e-01 -1.877256e+05 -1.877427e+05 -9.994204e-05 -1.050832e+03 0 -2.723994e-03 -2.572725e+02 1.323903e+01 
9.921147e-01 2.564845e+05 2.565079e+05 -9.994178e-05 5.039338e+03 0 -4.120764e-02 -2.572725e+02 1.323903e+01 
9.955620e-01 -3.763130e+05 -3.763474e+05 -9.994158e-05 -7.450249e+02 0 -7.590698e-02 -2.572725e+02 1.323903e+01 
9.980267e-01 6.423840e+05 6.424428e+05 -9.994143e-05 5.901708e+04 0 5.647898e-01 -2.572725e+02 1.323903e+01 
9.995066e-01 -1.204542e+06 -1.204650e+06 -9.994134e-05 3.161258e+05 0 -8.804747e-01 -2.572725e+02 1.323903e+01 
1 -1.043550e+07 -1.043644e+07 -9.994132e-05 6.366148e+06 0 -1.894286e+01 -2.572725e+02 1.323903e+01 
ZONE T="1.2783e-07", I=101
-1 7761768924588445696 7763060053409658880 -8.296092e-02 -4593278042071105536 0 2.739794e+07 -1.099836e+15 1.969460e+05 
-9.995066e-01 1625641007383466496 1625911423330691584 -8.300055e-02 -337760231521517568 0 -2.908734e+06 -1.099836e+15 1.969460e+05 
-9.980267e-01 -507109044534684096 -507193405082882432 -8.288391e-02 -25422603108188160 0 6.893555e+05 -1.099836e+15 1.969460e+05 
-9.955620e-01 267518556808946816 267563060554048800 -8.280510e-02 -4141611693559808 0 -3.639690e+05 -1.099836e+15 1.969460e+05 
-9.921147e-01 -167866266429547392 -167894192830965536 -8.257568e-02 -1186774907483136 0 2.144978e+05 -1.099836e+15 1.969460e+05 
-9.876883e-01 116692213856815840 116711627658546480 -8.239365e-02 -459755523981312 0 -1.512209e+05 -1.099836e+15 1.969460e+05 
-9.822873e-01 -86415235271081728 -86429612692699856 -8.206109e-02 -213851919763968 0 1.094889e+05 -1.099836e+15 1.969460e+05 
-9.759168e-01 66871389366781504 66882515853569744 -8.177730e-02 -112598663814272 0 -8.563752e+04 -1.099836e+15 1.969460e+05 
-9.685832e-01 -53420313093464840 -53429202153304968 -8.134329e-02 -64812294754176 0 6.773123e+04 -1.099836e+15 1.969460e+05 
-9.602937e-01 43722638758335592 43729914749572736 -8.095903e-02 -39912750010464 0 -5.590960e+04 -1.099836e+15 1.969460e+05 
-9.510565e-01 -36469300936258696 -36475370455590840 -8.042522e-02 -25909861766272 0 4.642938e+04 -1.099836e+15 1.969460e+05 
-9.408808e-01 30885788124230396 30890928931317836 -7.994219e-02 -17550668835920 0 -3.961488e+04 -1.099836e+15 1.969460e+05 
-9.297765e-01 -26483975899788620 -26488384556517464 -7.931053e-02 -12309723169616 0 3.392561e+04 -1.099836e+15 1.969460e+05 
-9.177546e-01 22945157524233976 22948977577426652 -7.873082e-02 -8890340053600 0 -2.959952e+04 -1.099836e+15 1.969460e+05 
-9.048271e-01 -20052150688138720 -20055489557550208 -7.800363e-02 -6581287268992 0 2.588770e+04 -1.099836e+15 1.969460e+05 
-8.910065e-01 17653320189616396 17656260071611222 -7.732971e-02 -4977303068256 0 -2.295015e+04 -1.099836e+15 1.969460e+05 
-8.763067e-01 -15639455878593124 -15642060803235014 -7.650966e-02 -3834034681852 0 2.037890e+04 -1.099836e+15 1.969460e+05 
-8.607420e-01 13930506867353214 13932827548967192 -7.574439e-02 -3001957973794 0 -1.828226e+04 -1.099836e+15 1.969460e+05 
-8.443279e-01 -12466389731457162 -12468466890031032 -7.483454e-02 -2383960955250 0 1.641860e+04 -1.099836e+15 1.969460e+05 
-8.270806e-01 11201405825288510 11203272579319578 -7.398113e-02 -1917676588360 0 -1.486331e+04 -1.099836e+15 1.969460e+05 
-8.090170e-01 -10100140305649806 -10101823882737920 -7.298487e-02 -1559927393234 0 1.346354e+04 -1.099836e+15 1.969460e+05 
-7.901550e-01 9134863655716254 9136386670972608 -7.204689e-02 -1282148341272 0 -1.227358e+04 -1.099836e+15 1.969460e+05 
-7.705132e-01 -8283530635361328 -8284912036908532 -7.096795e-02 -1063333450462 0 1.119135e+04 -1.099836e+15 1.969460e+05 
-7.501111e-01 7528470827725928 7529726624415336 -6.994929e-02 -889413768386 0 -1.025735e+04 -1.099836e+15 1.969460e+05 
-7.289686e-01 -6855339790309928 -6856483604940418 -6.879174e-02 -7.493755e+11 0 9.400139e+03 -1.099836e+15 1.969460e+05 
-7.071068e-01 6252415400185652 6253458905698806 -6.769662e-02 -635886142555 0 -8.650980e+03 -1.099836e+15 1.969460e+05 
-6.845471e-01 -5710014932619070 -5710968191309454 -6.646483e-02 -542787563215 0 7.957753e+03 -1.099836e+15 1.969460e+05 
-6.613119e-01 5220096348370650 5220968084790330 -6.529777e-02 -466089270711 0 -7.345435e+03 -1.099836e+15 1.969460e+05 
-6.374240e-01 -4775918092374302 -4776715909632968 -6.399640e-02 -4.021465e+11 0 6.774499e+03 -1.099836e+15 1.969460e+05 
-6.129071e-01 4.371803e+15 4372533441989816 -6.276221e-02 -3.487186e+11 0 -6.265570e+03 -1.099836e+15 1.969460e+05 
-5.877853e-01 -4.002931e+15 -4003599925482387 -6.139620e-02 -3.035338e+11 0 5.787566e+03 -1.099836e+15 1.969460e+05 
-5.620834e-01 3.665194e+15 3.665807e+15 -6.009994e-02 -265309989074 0 -5.358061e+03 -1.099836e+15 1.969460e+05 
-5.358268e-01 -3.355065e+15 -3355626735750639 -5.867449e-02 -2.325612e+11 0 4.951766e+03 -1.099836e+15 1.969460e+05 
-5.090414e-01 3.069508e+15 3.070022e+15 -5.732148e-02 -2.045506e+11 0 -4.584095e+03 -1.099836e+15 1.969460e+05 
-4.817537e-01 -2.805890e+15 -2.806360e+15 -5.584201e-02 -1.802606e+11 0 4.233798e+03 -1.099836e+15 1.969460e+05 
-4.539905e-01 2561919995466219 2562349137349404 -5.443777e-02 -1.592744e+11 0 -3.914759e+03 -1.099836e+15 1.969460e+05 
-4.257793e-01 -2.335597e+15 -2335988573176706 -5.290993e-02 -1.408645e+11 0 3.608577e+03 -1.099836e+15 1.969460e+05 
-3.971479e-01 2.125166e+15 2125521972154148 -5.146022e-02 -1.248065e+11 0 -3.328051e+03 -1.099836e+15 1.969460e+05 
-3.681246e-01 -1.929078e+15 -1.929401e+15 -4.988983e-02 -1.105579e+11 0 3.056807e+03 -1.099836e+15 1.969460e+05 
-3.387379e-01 1745965096721977 1746258147727550 -4.840056e-02 -9.801329e+10 0 -2.806880e+03 -1.099836e+15 1.969460e+05 
-3.090170e-01 -1.574613e+15 -1574877247197001 -4.679363e-02 -8.675135e+10 0 2.563338e+03 -1.099836e+15 1.969460e+05 
-2.789911e-01 1.413939e+15 1.414176e+15 -4.527087e-02 -7.674105e+10 0 -2.337695e+03 -1.099836e+15 1.969460e+05 
-2.486899e-01 -1262974207674301 -1.263187e+15 -4.363355e-02 -67642541415 0 2.116030e+03 -1.099836e+15 1.969460e+05 
-2.181432e-01 1.120851e+15 1.121039e+15 -4.208351e-02 -5.947195e+10 0 -1.909516e+03 -1.099836e+15 1.969460e+05 
-1.873813e-01 -9.867856e+14 -9.869518e+14 -4.042205e-02 -5.194501e+10 0 1.704932e+03 -1.099836e+15 1.969460e+05 
-1.564345e-01 8.600709e+14 8.602158e+14 -3.885106e-02 -4.510796e+10 0 -1.513237e+03 -1.099836e+15 1.969460e+05 
-1.253332e-01 -7.400638e+14 -7.401886e+14 -3.717182e-02 -3.871478e+10 0 1.321693e+03 -1.099836e+15 1.969460e+05 
-9.410831e-02 6.261790e+14 6.262847e+14 -3.558626e-02 -3.283084e+10 0 -1.141109e+03 -1.099836e+15 1.969460e+05 
-6.279052e-02 -5.178803e+14 -5.179678e+14 -3.389568e-02 -2.723627e+10 0 9.591087e+02 -1.099836e+15 1.969460e+05 
-3.141076e-02 4.146751e+14 4.147452e+14 -3.230200e-02 -2.200833e+10 0 -7.863256e+02 -1.099836e+15 1.969460e+05 
-1.110223e-16 -3.161078e+14 -3.161613e+14 -3.060655e-02 -1.694444e+10 0 6.107923e+02 -1.099836e+15 1.969460e+05 
3.141076e-02 2.217558e+14 2.217934e+14 -2.901126e-02 -1.212868e+10 0 -4.426628e+02 -1.099836e+15 1.969460e+05 
6.279052e-02 -1.312241e+14 -1.312464e+14 -2.731743e-02 -7.368850e+09 0 2.710067e+02 -1.099836e+15 1.969460e+05 
9.410831e-02 4.414188e+13 4.414944e+13 -2.572700e-02 -2.752123e+09 0 -1.037837e+02 -1.099836e+15 1.969460e+05 
1.253332e-01 3.984216e+13 3.984884e+13 -2.404129e-02 1.909262e+09 0 -6.826956e+01 -1.099836e+15 1.969460e+05 
1.564345e-01 -1.210623e+14 -1.210828e+14 -2.246221e-02 6.528256e+09 0 2.323544e+02 -1.099836e+15 1.969460e+05 
1.873813e-01 1.998402e+14 1.998740e+14 -2.079105e-02 1.129377e+10 0 -4.084440e+02 -1.099836e+15 1.969460e+05 
2.181432e-01 -276486819490227 -2.765338e+14 -1.922975e-02 1.612213e+10 0 5.767800e+02 -1.099836e+15 1.969460e+05 
2.486899e-01 3.513070e+14 3.513668e+14 -1.757956e-02 2.120940e+10 0 -7.579548e+02 -1.099836e+15 1.969460e+05 
2.789911e-01 -4.246014e+14 -4.246737e+14 -1.604238e-02 2.647920e+10 0 9.330569e+02 -1.099836e+15 1.969460e+05 
3.090170e-01 4.966704e+14 4.967551e+14 -1.441947e-02 3.214189e+10 0 -1.123007e+03 -1.099836e+15 1.969460e+05 
3.387379e-01 -567817029047141 -5.679140e+14 -1.291270e-02 3.813380e+10 0 1.308093e+03 -1.099836e+15 1.969460e+05 