TITLE = "2 species of PNP-Steric with high order term" 
VARIABLES = "X" "Conc1" "Conc2" "phi" "Current_x""I_ext" "I_PNP" "CURRENT" "ENERGY" "
ZONE T="0.001", I=31
-1 3.643769e-01 3.642349e-01 -9.900347e-05 7.734712e-04 0 7.734712e-04 4.093177e-11 1.245313e+01 
-9.945219e-01 6.290755e-01 6.289482e-01 -9.896755e-05 6.292538e-03 0 6.292538e-03 4.093177e-11 1.245313e+01 
-9.781476e-01 1.308560e+00 1.308449e+00 -9.882942e-05 3.623450e-03 0 3.623450e-03 4.093177e-11 1.245313e+01 
-9.510565e-01 2.393770e+00 2.393793e+00 -9.879298e-05 3.869443e-03 0 3.869443e-03 4.093177e-11 1.245313e+01 
-9.135455e-01 2.725625e+00 2.725547e+00 -9.866250e-05 -7.966582e-04 0 -7.966582e-04 4.093177e-11 1.245313e+01 
-8.660254e-01 3.129204e+00 3.129273e+00 -9.876618e-05 1.562945e-03 0 1.562945e-03 4.093177e-11 1.245313e+01 
-8.090170e-01 2.865622e+00 2.865555e+00 -9.861188e-05 -1.262132e-03 0 -1.262132e-03 4.093177e-11 1.245313e+01 
-7.431448e-01 3.128628e+00 3.128691e+00 -9.876538e-05 1.330776e-03 0 1.330776e-03 4.093177e-11 1.245313e+01 
-6.691306e-01 2.876206e+00 2.876146e+00 -9.857763e-05 -1.017853e-03 0 -1.017853e-03 4.093177e-11 1.245313e+01 
-5.877853e-01 3.118336e+00 3.118392e+00 -9.876345e-05 9.888435e-04 0 9.888435e-04 4.093177e-11 1.245313e+01 
-5.000000e-01 2.885867e+00 2.885813e+00 -9.855558e-05 -7.079677e-04 0 -7.079677e-04 4.093177e-11 1.245313e+01 
-4.067366e-01 3.110289e+00 3.110341e+00 -9.876133e-05 6.318542e-04 0 6.318542e-04 4.093177e-11 1.245313e+01 
-3.090170e-01 2.892377e+00 2.892327e+00 -9.854264e-05 -4.097385e-04 0 -4.097385e-04 4.093177e-11 1.245313e+01 
-2.079117e-01 3.105521e+00 3.105571e+00 -9.875982e-05 3.049212e-04 0 3.049212e-04 4.093177e-11 1.245313e+01 
-1.045285e-01 2.895549e+00 2.895500e+00 -9.853668e-05 -1.335741e-04 0 -1.335741e-04 4.093177e-11 1.245313e+01 
-3.330669e-16 3.103965e+00 3.104013e+00 -9.875929e-05 1.244807e-10 0 1.244807e-10 4.093177e-11 1.245313e+01 
1.045285e-01 2.895549e+00 2.895500e+00 -9.853668e-05 1.335738e-04 0 1.335738e-04 4.093177e-11 1.245313e+01 
2.079117e-01 3.105521e+00 3.105571e+00 -9.875982e-05 -3.049209e-04 0 -3.049209e-04 4.093177e-11 1.245313e+01 
3.090170e-01 2.892377e+00 2.892327e+00 -9.854264e-05 4.097382e-04 0 4.097382e-04 4.093177e-11 1.245313e+01 
4.067366e-01 3.110289e+00 3.110341e+00 -9.876133e-05 -6.318538e-04 0 -6.318538e-04 4.093177e-11 1.245313e+01 
5.000000e-01 2.885867e+00 2.885813e+00 -9.855558e-05 7.079673e-04 0 7.079673e-04 4.093177e-11 1.245313e+01 
5.877853e-01 3.118336e+00 3.118392e+00 -9.876345e-05 -9.888431e-04 0 -9.888431e-04 4.093177e-11 1.245313e+01 
6.691306e-01 2.876206e+00 2.876146e+00 -9.857763e-05 1.017852e-03 0 1.017852e-03 4.093177e-11 1.245313e+01 
7.431448e-01 3.128628e+00 3.128691e+00 -9.876538e-05 -1.330775e-03 0 -1.330775e-03 4.093177e-11 1.245313e+01 
8.090170e-01 2.865622e+00 2.865555e+00 -9.861188e-05 1.262132e-03 0 1.262132e-03 4.093177e-11 1.245313e+01 
8.660254e-01 3.129204e+00 3.129273e+00 -9.876618e-05 -1.562944e-03 0 -1.562944e-03 4.093177e-11 1.245313e+01 
9.135455e-01 2.725625e+00 2.725547e+00 -9.866250e-05 7.966561e-04 0 7.966561e-04 4.093177e-11 1.245313e+01 
9.510565e-01 2.393770e+00 2.393793e+00 -9.879298e-05 -3.869439e-03 0 -3.869439e-03 4.093177e-11 1.245313e+01 
9.781476e-01 1.308560e+00 1.308449e+00 -9.882942e-05 -3.623456e-03 0 -3.623456e-03 4.093177e-11 1.245313e+01 
9.945219e-01 6.290755e-01 6.289482e-01 -9.896755e-05 -6.292535e-03 0 -6.292535e-03 4.093177e-11 1.245313e+01 
1 3.643769e-01 3.642349e-01 -9.900347e-05 -7.734644e-04 0 -7.734644e-04 4.093177e-11 1.245313e+01 
ZONE T="0.002", I=31
-1 3.626516e-01 3.625064e-01 -9.856495e-05 3.966484e-03 0 3.966484e-03 -5.203537e-11 1.216625e+01 
-9.945219e-01 5.520004e-01 5.518684e-01 -9.850661e-05 3.734698e-03 0 3.734698e-03 -5.203537e-11 1.216625e+01 
-9.781476e-01 1.051352e+00 1.051230e+00 -9.829537e-05 3.698040e-03 0 3.698040e-03 -5.203537e-11 1.216625e+01 
-9.510565e-01 1.909220e+00 1.909204e+00 -9.816727e-05 2.421981e-03 0 2.421981e-03 -5.203537e-11 1.216625e+01 
-9.135455e-01 2.457291e+00 2.457203e+00 -9.797897e-05 1.009177e-03 0 1.009177e-03 -5.203537e-11 1.216625e+01 
-8.660254e-01 3.013191e+00 3.013257e+00 -9.806076e-05 5.858035e-04 0 5.858035e-04 -5.203537e-11 1.216625e+01 
-8.090170e-01 2.887640e+00 2.887568e+00 -9.789370e-05 -2.603601e-04 0 -2.603601e-04 -5.203537e-11 1.216625e+01 
-7.431448e-01 3.105818e+00 3.105888e+00 -9.805827e-05 3.242273e-04 0 3.242273e-04 -5.203537e-11 1.216625e+01 
-6.691306e-01 2.893615e+00 2.893547e+00 -9.784612e-05 -3.385708e-04 0 -3.385708e-04 -5.203537e-11 1.216625e+01 
-5.877853e-01 3.105332e+00 3.105399e+00 -9.805960e-05 3.465678e-04 0 3.465678e-04 -5.203537e-11 1.216625e+01 
-5.000000e-01 2.895506e+00 2.895440e+00 -9.781017e-05 -2.953650e-04 0 -2.953650e-04 -5.203537e-11 1.216625e+01 
-4.067366e-01 3.103069e+00 3.103133e+00 -9.805948e-05 2.689515e-04 0 2.689515e-04 -5.203537e-11 1.216625e+01 
-3.090170e-01 2.897857e+00 2.897794e+00 -9.778692e-05 -1.929146e-04 0 -1.929146e-04 -5.203537e-11 1.216625e+01 
-2.079117e-01 3.101114e+00 3.101176e+00 -9.805889e-05 1.428072e-04 0 1.428072e-04 -5.203537e-11 1.216625e+01 
-1.045285e-01 2.899292e+00 2.899231e+00 -9.777564e-05 -6.631547e-05 0 -6.631547e-05 -5.203537e-11 1.216625e+01 
-3.330669e-16 3.100383e+00 3.100444e+00 -9.805861e-05 2.756711e-11 0 2.756711e-11 -5.203537e-11 1.216625e+01 
1.045285e-01 2.899292e+00 2.899231e+00 -9.777564e-05 6.631539e-05 0 6.631539e-05 -5.203537e-11 1.216625e+01 
2.079117e-01 3.101114e+00 3.101176e+00 -9.805889e-05 -1.428071e-04 0 -1.428071e-04 -5.203537e-11 1.216625e+01 
3.090170e-01 2.897857e+00 2.897794e+00 -9.778692e-05 1.929148e-04 0 1.929148e-04 -5.203537e-11 1.216625e+01 
4.067366e-01 3.103069e+00 3.103133e+00 -9.805948e-05 -2.689521e-04 0 -2.689521e-04 -5.203537e-11 1.216625e+01 
5.000000e-01 2.895506e+00 2.895440e+00 -9.781017e-05 2.953659e-04 0 2.953659e-04 -5.203537e-11 1.216625e+01 
5.877853e-01 3.105332e+00 3.105399e+00 -9.805960e-05 -3.465691e-04 0 -3.465691e-04 -5.203537e-11 1.216625e+01 
6.691306e-01 2.893615e+00 2.893547e+00 -9.784612e-05 3.385720e-04 0 3.385720e-04 -5.203537e-11 1.216625e+01 
7.431448e-01 3.105818e+00 3.105888e+00 -9.805827e-05 -3.242290e-04 0 -3.242290e-04 -5.203537e-11 1.216625e+01 
8.090170e-01 2.887640e+00 2.887568e+00 -9.789370e-05 2.603624e-04 0 2.603624e-04 -5.203537e-11 1.216625e+01 
8.660254e-01 3.013191e+00 3.013257e+00 -9.806076e-05 -5.858063e-04 0 -5.858063e-04 -5.203537e-11 1.216625e+01 
9.135455e-01 2.457291e+00 2.457203e+00 -9.797897e-05 -1.009175e-03 0 -1.009175e-03 -5.203537e-11 1.216625e+01 
9.510565e-01 1.909220e+00 1.909204e+00 -9.816727e-05 -2.421983e-03 0 -2.421983e-03 -5.203537e-11 1.216625e+01 
9.781476e-01 1.051352e+00 1.051230e+00 -9.829537e-05 -3.698035e-03 0 -3.698035e-03 -5.203537e-11 1.216625e+01 
9.945219e-01 5.520004e-01 5.518684e-01 -9.850661e-05 -3.734704e-03 0 -3.734704e-03 -5.203537e-11 1.216625e+01 
1 3.626516e-01 3.625064e-01 -9.856495e-05 -3.966496e-03 0 -3.966496e-03 -5.203537e-11 1.216625e+01 
ZONE T="0.003", I=31
-1 3.632474e-01 3.631014e-01 -9.822606e-05 4.642146e-03 0 4.642146e-03 1.044731e-11 1.194799e+01 
-9.945219e-01 5.169656e-01 5.168308e-01 -9.814831e-05 2.486267e-03 0 2.486267e-03 1.044731e-11 1.194799e+01 
-9.781476e-01 9.312200e-01 9.310931e-01 -9.788464e-05 3.371212e-03 0 3.371212e-03 1.044731e-11 1.194799e+01 
-9.510565e-01 1.650695e+00 1.650654e+00 -9.767543e-05 1.820975e-03 0 1.820975e-03 1.044731e-11 1.194799e+01 
-9.135455e-01 2.239927e+00 2.239837e+00 -9.742994e-05 1.747350e-03 0 1.747350e-03 1.044731e-11 1.194799e+01 
-8.660254e-01 2.857641e+00 2.857695e+00 -9.745846e-05 4.098754e-04 0 4.098754e-04 1.044731e-11 1.194799e+01 
-8.090170e-01 2.882957e+00 2.882889e+00 -9.729127e-05 2.099622e-04 0 2.099622e-04 1.044731e-11 1.194799e+01 
-7.431448e-01 3.079822e+00 3.079888e+00 -9.744348e-05 -9.241497e-05 0 -9.241497e-05 1.044731e-11 1.194799e+01 
-6.691306e-01 2.916081e+00 2.916015e+00 -9.724345e-05 1.460076e-05 0 1.460076e-05 1.044731e-11 1.194799e+01 
-5.877853e-01 3.084477e+00 3.084542e+00 -9.744806e-05 -1.813946e-06 0 -1.813946e-06 1.044731e-11 1.194799e+01 
-5.000000e-01 2.914804e+00 2.914739e+00 -9.720502e-05 -4.174370e-05 0 -4.174370e-05 1.044731e-11 1.194799e+01 
-4.067366e-01 3.085192e+00 3.085256e+00 -9.745126e-05 3.944070e-05 0 3.944070e-05 1.044731e-11 1.194799e+01 
-3.090170e-01 2.914646e+00 2.914583e+00 -9.717848e-05 -4.533625e-05 0 -4.533625e-05 1.044731e-11 1.194799e+01 
-2.079117e-01 3.085122e+00 3.085185e+00 -9.745280e-05 3.131316e-05 0 3.131316e-05 1.044731e-11 1.194799e+01 
-1.045285e-01 2.914819e+00 2.914757e+00 -9.716512e-05 -1.828322e-05 0 -1.828322e-05 1.044731e-11 1.194799e+01 
-3.330669e-16 3.085014e+00 3.085076e+00 -9.745323e-05 -7.071062e-11 0 -7.071062e-11 1.044731e-11 1.194799e+01 
1.045285e-01 2.914819e+00 2.914757e+00 -9.716512e-05 1.828288e-05 0 1.828288e-05 1.044731e-11 1.194799e+01 
2.079117e-01 3.085122e+00 3.085185e+00 -9.745280e-05 -3.131325e-05 0 -3.131325e-05 1.044731e-11 1.194799e+01 
3.090170e-01 2.914646e+00 2.914583e+00 -9.717848e-05 4.533789e-05 0 4.533789e-05 1.044731e-11 1.194799e+01 
4.067366e-01 3.085192e+00 3.085256e+00 -9.745126e-05 -3.944264e-05 0 -3.944264e-05 1.044731e-11 1.194799e+01 
5.000000e-01 2.914804e+00 2.914739e+00 -9.720502e-05 4.174458e-05 0 4.174458e-05 1.044731e-11 1.194799e+01 
5.877853e-01 3.084477e+00 3.084542e+00 -9.744806e-05 1.814299e-06 0 1.814299e-06 1.044731e-11 1.194799e+01 
6.691306e-01 2.916081e+00 2.916015e+00 -9.724345e-05 -1.460391e-05 0 -1.460391e-05 1.044731e-11 1.194799e+01 
7.431448e-01 3.079822e+00 3.079888e+00 -9.744348e-05 9.242102e-05 0 9.242102e-05 1.044731e-11 1.194799e+01 
8.090170e-01 2.882957e+00 2.882889e+00 -9.729127e-05 -2.099655e-04 0 -2.099655e-04 1.044731e-11 1.194799e+01 
8.660254e-01 2.857641e+00 2.857695e+00 -9.745846e-05 -4.098759e-04 0 -4.098759e-04 1.044731e-11 1.194799e+01 
9.135455e-01 2.239927e+00 2.239837e+00 -9.742994e-05 -1.747351e-03 0 -1.747351e-03 1.044731e-11 1.194799e+01 
9.510565e-01 1.650695e+00 1.650654e+00 -9.767543e-05 -1.820973e-03 0 -1.820973e-03 1.044731e-11 1.194799e+01 
9.781476e-01 9.312200e-01 9.310931e-01 -9.788464e-05 -3.371211e-03 0 -3.371211e-03 1.044731e-11 1.194799e+01 
9.945219e-01 5.169656e-01 5.168308e-01 -9.814831e-05 -2.486270e-03 0 -2.486270e-03 1.044731e-11 1.194799e+01 
1 3.632474e-01 3.631014e-01 -9.822606e-05 -4.642148e-03 0 -4.642148e-03 1.044731e-11 1.194799e+01 
ZONE T="0.004", I=31
-1 3.641520e-01 3.640061e-01 -9.795064e-05 4.597679e-03 0 4.597679e-03 9.990539e-11 1.176568e+01 
-9.945219e-01 4.963873e-01 4.962509e-01 -9.785611e-05 1.853287e-03 0 1.853287e-03 9.990539e-11 1.176568e+01 
-9.781476e-01 8.596051e-01 8.594760e-01 -9.755164e-05 3.035547e-03 0 3.035547e-03 9.990539e-11 1.176568e+01 
-9.510565e-01 1.486991e+00 1.486932e+00 -9.727044e-05 1.531866e-03 0 1.531866e-03 9.990539e-11 1.176568e+01 
-9.135455e-01 2.075699e+00 2.075609e+00 -9.696759e-05 2.012312e-03 0 2.012312e-03 9.990539e-11 1.176568e+01 
-8.660254e-01 2.705251e+00 2.705288e+00 -9.692888e-05 4.007993e-04 0 4.007993e-04 9.990539e-11 1.176568e+01 
-8.090170e-01 2.851646e+00 2.851584e+00 -9.675879e-05 4.679507e-04 0 4.679507e-04 9.990539e-11 1.176568e+01 
-7.431448e-01 3.052848e+00 3.052906e+00 -9.688903e-05 -2.260068e-04 0 -2.260068e-04 9.990539e-11 1.176568e+01 
-6.691306e-01 2.934263e+00 2.934204e+00 -9.671100e-05 1.778024e-04 0 1.778024e-04 9.990539e-11 1.176568e+01 
-5.877853e-01 3.066062e+00 3.066120e+00 -9.689449e-05 -1.600991e-04 0 -1.600991e-04 9.990539e-11 1.176568e+01 
-5.000000e-01 2.932756e+00 2.932697e+00 -9.667519e-05 9.134912e-05 0 9.134912e-05 9.990539e-11 1.176568e+01 
-4.067366e-01 3.067802e+00 3.067860e+00 -9.689999e-05 -7.884584e-05 0 -7.884584e-05 9.990539e-11 1.176568e+01 
-3.090170e-01 2.931568e+00 2.931510e+00 -9.664930e-05 3.876808e-05 0 3.876808e-05 9.990539e-11 1.176568e+01 
-2.079117e-01 3.068600e+00 3.068658e+00 -9.690331e-05 -3.020510e-05 0 -3.020510e-05 9.990539e-11 1.176568e+01 
-1.045285e-01 2.931116e+00 2.931058e+00 -9.663591e-05 1.015967e-05 0 1.015967e-05 9.990539e-11 1.176568e+01 
-3.330669e-16 3.068813e+00 3.068871e+00 -9.690439e-05 8.573186e-10 0 8.573186e-10 9.990539e-11 1.176568e+01 
1.045285e-01 2.931116e+00 2.931058e+00 -9.663591e-05 -1.016105e-05 0 -1.016105e-05 9.990539e-11 1.176568e+01 
2.079117e-01 3.068600e+00 3.068658e+00 -9.690331e-05 3.020493e-05 0 3.020493e-05 9.990539e-11 1.176568e+01 
3.090170e-01 2.931568e+00 2.931510e+00 -9.664930e-05 -3.876633e-05 0 -3.876633e-05 9.990539e-11 1.176568e+01 
4.067366e-01 3.067802e+00 3.067860e+00 -9.689999e-05 7.884447e-05 0 7.884447e-05 9.990539e-11 1.176568e+01 
5.000000e-01 2.932756e+00 2.932697e+00 -9.667519e-05 -9.134895e-05 0 -9.134895e-05 9.990539e-11 1.176568e+01 
5.877853e-01 3.066062e+00 3.066120e+00 -9.689449e-05 1.601005e-04 0 1.601005e-04 9.990539e-11 1.176568e+01 
6.691306e-01 2.934263e+00 2.934204e+00 -9.671100e-05 -1.778085e-04 0 -1.778085e-04 9.990539e-11 1.176568e+01 
7.431448e-01 3.052848e+00 3.052906e+00 -9.688903e-05 2.260193e-04 0 2.260193e-04 9.990539e-11 1.176568e+01 
8.090170e-01 2.851646e+00 2.851584e+00 -9.675879e-05 -4.679606e-04 0 -4.679606e-04 9.990539e-11 1.176568e+01 
8.660254e-01 2.705251e+00 2.705288e+00 -9.692888e-05 -4.007963e-04 0 -4.007963e-04 9.990539e-11 1.176568e+01 
9.135455e-01 2.075699e+00 2.075609e+00 -9.696759e-05 -2.012316e-03 0 -2.012316e-03 9.990539e-11 1.176568e+01 
9.510565e-01 1.486991e+00 1.486932e+00 -9.727044e-05 -1.531855e-03 0 -1.531855e-03 9.990539e-11 1.176568e+01 
9.781476e-01 8.596051e-01 8.594760e-01 -9.755164e-05 -3.035560e-03 0 -3.035560e-03 9.990539e-11 1.176568e+01 
9.945219e-01 4.963873e-01 4.962509e-01 -9.785611e-05 -1.853281e-03 0 -1.853281e-03 9.990539e-11 1.176568e+01 
1 3.641520e-01 3.640061e-01 -9.795064e-05 -4.597654e-03 0 -4.597654e-03 9.990539e-11 1.176568e+01 
ZONE T="0.005", I=31
-1 3.649809e-01 3.648353e-01 -9.771550e-05 4.298143e-03 0 4.298143e-03 -1.447162e-11 1.160621e+01 
-9.945219e-01 4.825950e-01 4.824578e-01 -9.760620e-05 1.527075e-03 0 1.527075e-03 -1.447162e-11 1.160621e+01 
-9.781476e-01 8.109100e-01 8.107803e-01 -9.726765e-05 2.738632e-03 0 2.738632e-03 -1.447162e-11 1.160621e+01 
-9.510565e-01 1.372616e+00 1.372545e+00 -9.692165e-05 1.381427e-03 0 1.381427e-03 -1.447162e-11 1.160621e+01 
-9.135455e-01 1.947770e+00 1.947682e+00 -9.656221e-05 2.045771e-03 0 2.045771e-03 -1.447162e-11 1.160621e+01 
-8.660254e-01 2.568515e+00 2.568536e+00 -9.645206e-05 4.366032e-04 0 4.366032e-04 -1.447162e-11 1.160621e+01 
-8.090170e-01 2.804645e+00 2.804588e+00 -9.627310e-05 6.251606e-04 0 6.251606e-04 -1.447162e-11 1.160621e+01 
-7.431448e-01 3.022282e+00 3.022331e+00 -9.637543e-05 -2.343544e-04 0 -2.343544e-04 -1.447162e-11 1.160621e+01 
-6.691306e-01 2.947060e+00 2.947009e+00 -9.622012e-05 2.444458e-04 0 2.444458e-04 -1.447162e-11 1.160621e+01 
-5.877853e-01 3.051130e+00 3.051181e+00 -9.637910e-05 -2.189370e-04 0 -2.189370e-04 -1.447162e-11 1.160621e+01 
-5.000000e-01 2.947588e+00 2.947537e+00 -9.618843e-05 1.516763e-04 0 1.516763e-04 -1.447162e-11 1.160621e+01 
-4.067366e-01 3.053101e+00 3.053152e+00 -9.638550e-05 -1.307510e-04 0 -1.307510e-04 -1.447162e-11 1.160621e+01 
-3.090170e-01 2.946135e+00 2.946083e+00 -9.616487e-05 8.069891e-05 0 8.069891e-05 -1.447162e-11 1.160621e+01 
-2.079117e-01 3.054189e+00 3.054240e+00 -9.638977e-05 -5.945155e-05 0 -5.945155e-05 -1.447162e-11 1.160621e+01 
-1.045285e-01 2.945447e+00 2.945396e+00 -9.615242e-05 2.496466e-05 0 2.496466e-05 -1.447162e-11 1.160621e+01 
-3.330669e-16 3.054530e+00 3.054581e+00 -9.639123e-05 -4.426393e-10 0 -4.426393e-10 -1.447162e-11 1.160621e+01 
1.045285e-01 2.945447e+00 2.945396e+00 -9.615242e-05 -2.496426e-05 0 -2.496426e-05 -1.447162e-11 1.160621e+01 
2.079117e-01 3.054189e+00 3.054240e+00 -9.638977e-05 5.945135e-05 0 5.945135e-05 -1.447162e-11 1.160621e+01 
3.090170e-01 2.946135e+00 2.946083e+00 -9.616487e-05 -8.069869e-05 0 -8.069869e-05 -1.447162e-11 1.160621e+01 
4.067366e-01 3.053101e+00 3.053152e+00 -9.638550e-05 1.307514e-04 0 1.307514e-04 -1.447162e-11 1.160621e+01 
5.000000e-01 2.947588e+00 2.947537e+00 -9.618843e-05 -1.516762e-04 0 -1.516762e-04 -1.447162e-11 1.160621e+01 
5.877853e-01 3.051130e+00 3.051181e+00 -9.637910e-05 2.189353e-04 0 2.189353e-04 -1.447162e-11 1.160621e+01 
6.691306e-01 2.947060e+00 2.947009e+00 -9.622012e-05 -2.444447e-04 0 -2.444447e-04 -1.447162e-11 1.160621e+01 
7.431448e-01 3.022282e+00 3.022331e+00 -9.637543e-05 2.343558e-04 0 2.343558e-04 -1.447162e-11 1.160621e+01 
8.090170e-01 2.804645e+00 2.804588e+00 -9.627310e-05 -6.251617e-04 0 -6.251617e-04 -1.447162e-11 1.160621e+01 
8.660254e-01 2.568515e+00 2.568536e+00 -9.645206e-05 -4.366036e-04 0 -4.366036e-04 -1.447162e-11 1.160621e+01 
9.135455e-01 1.947770e+00 1.947682e+00 -9.656221e-05 -2.045772e-03 0 -2.045772e-03 -1.447162e-11 1.160621e+01 
9.510565e-01 1.372616e+00 1.372545e+00 -9.692165e-05 -1.381429e-03 0 -1.381429e-03 -1.447162e-11 1.160621e+01 
9.781476e-01 8.109100e-01 8.107803e-01 -9.726765e-05 -2.738627e-03 0 -2.738627e-03 -1.447162e-11 1.160621e+01 
9.945219e-01 4.825950e-01 4.824578e-01 -9.760620e-05 -1.527077e-03 0 -1.527077e-03 -1.447162e-11 1.160621e+01 
1 3.649809e-01 3.648353e-01 -9.771550e-05 -4.298150e-03 0 -4.298150e-03 -1.447162e-11 1.160621e+01 
ZONE T="0.006", I=31
-1 3.656613e-01 3.655162e-01 -9.750739e-05 3.911428e-03 0 3.911428e-03 7.372940e-12 1.146281e+01 
-9.945219e-01 4.725522e-01 4.724145e-01 -9.738487e-05 1.355299e-03 0 1.355299e-03 7.372940e-12 1.146281e+01 
-9.781476e-01 7.749273e-01 7.747976e-01 -9.701638e-05 2.479065e-03 0 2.479065e-03 7.372940e-12 1.146281e+01 
-9.510565e-01 1.287260e+00 1.287180e+00 -9.661142e-05 1.295672e-03 0 1.295672e-03 7.372940e-12 1.146281e+01 
-9.135455e-01 1.844549e+00 1.844462e+00 -9.619697e-05 1.972169e-03 0 1.972169e-03 7.372940e-12 1.146281e+01 
-8.660254e-01 2.449124e+00 2.449130e+00 -9.601601e-05 4.875214e-04 0 4.875214e-04 7.372940e-12 1.146281e+01 
-8.090170e-01 2.749892e+00 2.749840e+00 -9.582171e-05 7.208664e-04 0 7.208664e-04 7.372940e-12 1.146281e+01 
-7.431448e-01 2.987856e+00 2.987897e+00 -9.589207e-05 -1.893902e-04 0 -1.893902e-04 7.372940e-12 1.146281e+01 
-6.691306e-01 2.954269e+00 2.954225e+00 -9.575667e-05 2.651045e-04 0 2.651045e-04 7.372940e-12 1.146281e+01 
-5.877853e-01 3.039156e+00 3.039199e+00 -9.589134e-05 -2.280191e-04 0 -2.280191e-04 7.372940e-12 1.146281e+01 
-5.000000e-01 2.959339e+00 2.959296e+00 -9.572893e-05 1.710566e-04 0 1.710566e-04 7.372940e-12 1.146281e+01 
-4.067366e-01 3.041284e+00 3.041328e+00 -9.589754e-05 -1.463654e-04 0 -1.463654e-04 7.372940e-12 1.146281e+01 
-3.090170e-01 2.957972e+00 2.957928e+00 -9.570816e-05 9.708748e-05 0 9.708748e-05 7.372940e-12 1.146281e+01 
-2.079117e-01 3.042377e+00 3.042421e+00 -9.590201e-05 -6.998358e-05 0 -6.998358e-05 7.372940e-12 1.146281e+01 
-1.045285e-01 2.957252e+00 2.957208e+00 -9.569702e-05 3.120977e-05 0 3.120977e-05 7.372940e-12 1.146281e+01 
-3.330669e-16 3.042742e+00 3.042786e+00 -9.590359e-05 -5.159527e-10 0 -5.159527e-10 7.372940e-12 1.146281e+01 
1.045285e-01 2.957252e+00 2.957208e+00 -9.569702e-05 -3.120909e-05 0 -3.120909e-05 7.372940e-12 1.146281e+01 
2.079117e-01 3.042377e+00 3.042421e+00 -9.590201e-05 6.998286e-05 0 6.998286e-05 7.372940e-12 1.146281e+01 
3.090170e-01 2.957972e+00 2.957928e+00 -9.570816e-05 -9.708656e-05 0 -9.708656e-05 7.372940e-12 1.146281e+01 
4.067366e-01 3.041284e+00 3.041328e+00 -9.589754e-05 1.463649e-04 0 1.463649e-04 7.372940e-12 1.146281e+01 
5.000000e-01 2.959339e+00 2.959296e+00 -9.572893e-05 -1.710559e-04 0 -1.710559e-04 7.372940e-12 1.146281e+01 
5.877853e-01 3.039156e+00 3.039199e+00 -9.589134e-05 2.280174e-04 0 2.280174e-04 7.372940e-12 1.146281e+01 
6.691306e-01 2.954269e+00 2.954225e+00 -9.575667e-05 -2.651031e-04 0 -2.651031e-04 7.372940e-12 1.146281e+01 
7.431448e-01 2.987856e+00 2.987897e+00 -9.589207e-05 1.893905e-04 0 1.893905e-04 7.372940e-12 1.146281e+01 
8.090170e-01 2.749892e+00 2.749840e+00 -9.582171e-05 -7.208664e-04 0 -7.208664e-04 7.372940e-12 1.146281e+01 
8.660254e-01 2.449124e+00 2.449130e+00 -9.601601e-05 -4.875219e-04 0 -4.875219e-04 7.372940e-12 1.146281e+01 
9.135455e-01 1.844549e+00 1.844462e+00 -9.619697e-05 -1.972169e-03 0 -1.972169e-03 7.372940e-12 1.146281e+01 
9.510565e-01 1.287260e+00 1.287180e+00 -9.661142e-05 -1.295675e-03 0 -1.295675e-03 7.372940e-12 1.146281e+01 
9.781476e-01 7.749273e-01 7.747976e-01 -9.701638e-05 -2.479062e-03 0 -2.479062e-03 7.372940e-12 1.146281e+01 
9.945219e-01 4.725522e-01 4.724145e-01 -9.738487e-05 -1.355298e-03 0 -1.355298e-03 7.372940e-12 1.146281e+01 
1 3.656613e-01 3.655162e-01 -9.750739e-05 -3.911430e-03 0 -3.911430e-03 7.372940e-12 1.146281e+01 
ZONE T="0.007", I=31
-1 3.661975e-01 3.660528e-01 -9.731889e-05 3.510099e-03 0 3.510099e-03 7.343232e-12 1.133146e+01 
-9.945219e-01 4.648143e-01 4.646763e-01 -9.718440e-05 1.260796e-03 0 1.260796e-03 7.343232e-12 1.133146e+01 
-9.781476e-01 7.468021e-01 7.466725e-01 -9.678872e-05 2.251475e-03 0 2.251475e-03 7.343232e-12 1.133146e+01 
-9.510565e-01 1.220537e+00 1.220451e+00 -9.632973e-05 1.241212e-03 0 1.241212e-03 7.343232e-12 1.133146e+01 
-9.135455e-01 1.758938e+00 1.758852e+00 -9.586222e-05 1.855884e-03 0 1.855884e-03 7.343232e-12 1.133146e+01 
-8.660254e-01 2.345420e+00 2.345413e+00 -9.561312e-05 5.420549e-04 0 5.420549e-04 7.343232e-12 1.133146e+01 
-8.090170e-01 2.692133e+00 2.692085e+00 -9.539754e-05 7.736384e-04 0 7.736384e-04 7.343232e-12 1.133146e+01 
-7.431448e-01 2.950469e+00 2.950501e+00 -9.543333e-05 -1.240329e-04 0 -1.240329e-04 7.343232e-12 1.133146e+01 
-6.691306e-01 2.956090e+00 2.956053e+00 -9.531362e-05 2.655311e-04 0 2.655311e-04 7.343232e-12 1.133146e+01 
-5.877853e-01 3.029291e+00 3.029327e+00 -9.542557e-05 -2.127757e-04 0 -2.127757e-04 7.343232e-12 1.133146e+01 
-5.000000e-01 2.968447e+00 2.968410e+00 -9.528889e-05 1.685486e-04 0 1.685486e-04 7.343232e-12 1.133146e+01 
-4.067366e-01 3.032003e+00 3.032040e+00 -9.543087e-05 -1.431515e-04 0 -1.431515e-04 7.343232e-12 1.133146e+01 
-3.090170e-01 2.967332e+00 2.967295e+00 -9.527084e-05 9.885630e-05 0 9.885630e-05 7.343232e-12 1.133146e+01 
-2.079117e-01 3.032981e+00 3.033018e+00 -9.543502e-05 -7.028055e-05 0 -7.028055e-05 7.343232e-12 1.133146e+01 
-1.045285e-01 2.966675e+00 2.966637e+00 -9.526105e-05 3.239849e-05 0 3.239849e-05 7.343232e-12 1.133146e+01 
-3.330669e-16 3.033321e+00 3.033359e+00 -9.543653e-05 -4.644037e-10 0 -4.644037e-10 7.343232e-12 1.133146e+01 
1.045285e-01 2.966675e+00 2.966637e+00 -9.526105e-05 -3.239796e-05 0 -3.239796e-05 7.343232e-12 1.133146e+01 
2.079117e-01 3.032981e+00 3.033018e+00 -9.543502e-05 7.028007e-05 0 7.028007e-05 7.343232e-12 1.133146e+01 
3.090170e-01 2.967332e+00 2.967295e+00 -9.527084e-05 -9.885555e-05 0 -9.885555e-05 7.343232e-12 1.133146e+01 
4.067366e-01 3.032003e+00 3.032040e+00 -9.543087e-05 1.431513e-04 0 1.431513e-04 7.343232e-12 1.133146e+01 
5.000000e-01 2.968447e+00 2.968410e+00 -9.528889e-05 -1.685489e-04 0 -1.685489e-04 7.343232e-12 1.133146e+01 
5.877853e-01 3.029291e+00 3.029327e+00 -9.542557e-05 2.127753e-04 0 2.127753e-04 7.343232e-12 1.133146e+01 
6.691306e-01 2.956090e+00 2.956053e+00 -9.531362e-05 -2.655307e-04 0 -2.655307e-04 7.343232e-12 1.133146e+01 
7.431448e-01 2.950469e+00 2.950501e+00 -9.543333e-05 1.240338e-04 0 1.240338e-04 7.343232e-12 1.133146e+01 
8.090170e-01 2.692133e+00 2.692085e+00 -9.539754e-05 -7.736392e-04 0 -7.736392e-04 7.343232e-12 1.133146e+01 
8.660254e-01 2.345420e+00 2.345413e+00 -9.561312e-05 -5.420542e-04 0 -5.420542e-04 7.343232e-12 1.133146e+01 
9.135455e-01 1.758938e+00 1.758852e+00 -9.586222e-05 -1.855885e-03 0 -1.855885e-03 7.343232e-12 1.133146e+01 
9.510565e-01 1.220537e+00 1.220451e+00 -9.632973e-05 -1.241210e-03 0 -1.241210e-03 7.343232e-12 1.133146e+01 
9.781476e-01 7.468021e-01 7.466725e-01 -9.678872e-05 -2.251478e-03 0 -2.251478e-03 7.343232e-12 1.133146e+01 
9.945219e-01 4.648143e-01 4.646763e-01 -9.718440e-05 -1.260795e-03 0 -1.260795e-03 7.343232e-12 1.133146e+01 
1 3.661975e-01 3.660528e-01 -9.731889e-05 -3.510094e-03 0 -3.510094e-03 7.343232e-12 1.133146e+01 
ZONE T="0.008", I=31
-1 3.666122e-01 3.664680e-01 -9.714557e-05 3.128437e-03 0 3.128437e-03 1.032462e-12 1.120957e+01 
-9.945219e-01 4.586023e-01 4.584642e-01 -9.700016e-05 1.204459e-03 0 1.204459e-03 1.032462e-12 1.120957e+01 
-9.781476e-01 7.239209e-01 7.237917e-01 -9.657926e-05 2.051982e-03 0 2.051982e-03 1.032462e-12 1.120957e+01 
-9.510565e-01 1.166548e+00 1.166457e+00 -9.607049e-05 1.201977e-03 0 1.201977e-03 1.032462e-12 1.120957e+01 
-9.135455e-01 1.686395e+00 1.686310e+00 -9.555200e-05 1.729356e-03 0 1.729356e-03 1.032462e-12 1.120957e+01 
-8.660254e-01 2.255018e+00 2.255001e+00 -9.523810e-05 5.934532e-04 0 5.934532e-04 1.032462e-12 1.120957e+01 
-8.090170e-01 2.634093e+00 2.634048e+00 -9.499624e-05 7.965775e-04 0 7.965775e-04 1.032462e-12 1.120957e+01 
-7.431448e-01 2.911238e+00 2.911262e+00 -9.499598e-05 -5.407385e-05 0 -5.407385e-05 1.032462e-12 1.120957e+01 
-6.691306e-01 2.953019e+00 2.952988e+00 -9.488728e-05 2.586193e-04 0 2.586193e-04 1.032462e-12 1.120957e+01 
-5.877853e-01 3.020706e+00 3.020736e+00 -9.497850e-05 -1.865042e-04 0 -1.865042e-04 1.032462e-12 1.120957e+01 
-5.000000e-01 2.975373e+00 2.975342e+00 -9.486422e-05 1.554583e-04 0 1.554583e-04 1.032462e-12 1.120957e+01 
-4.067366e-01 3.024795e+00 3.024826e+00 -9.498247e-05 -1.310260e-04 0 -1.310260e-04 1.032462e-12 1.120957e+01 
-3.090170e-01 2.974631e+00 2.974600e+00 -9.484860e-05 9.290123e-05 0 9.290123e-05 1.032462e-12 1.120957e+01 
-2.079117e-01 3.025624e+00 3.025656e+00 -9.498601e-05 -6.542324e-05 0 -6.542324e-05 1.032462e-12 1.120957e+01 
-1.045285e-01 2.974070e+00 2.974038e+00 -9.484007e-05 3.082114e-05 0 3.082114e-05 1.032462e-12 1.120957e+01 
-3.330669e-16 3.025919e+00 3.025951e+00 -9.498734e-05 -5.790301e-10 0 -5.790301e-10 1.032462e-12 1.120957e+01 
1.045285e-01 2.974070e+00 2.974038e+00 -9.484007e-05 -3.082045e-05 0 -3.082045e-05 1.032462e-12 1.120957e+01 
2.079117e-01 3.025624e+00 3.025656e+00 -9.498601e-05 6.542285e-05 0 6.542285e-05 1.032462e-12 1.120957e+01 
3.090170e-01 2.974631e+00 2.974600e+00 -9.484860e-05 -9.290099e-05 0 -9.290099e-05 1.032462e-12 1.120957e+01 
4.067366e-01 3.024795e+00 3.024826e+00 -9.498247e-05 1.310268e-04 0 1.310268e-04 1.032462e-12 1.120957e+01 
5.000000e-01 2.975373e+00 2.975342e+00 -9.486422e-05 -1.554594e-04 0 -1.554594e-04 1.032462e-12 1.120957e+01 
5.877853e-01 3.020706e+00 3.020736e+00 -9.497850e-05 1.865038e-04 0 1.865038e-04 1.032462e-12 1.120957e+01 
6.691306e-01 2.953019e+00 2.952988e+00 -9.488728e-05 -2.586178e-04 0 -2.586178e-04 1.032462e-12 1.120957e+01 
7.431448e-01 2.911238e+00 2.911262e+00 -9.499598e-05 5.407261e-05 0 5.407261e-05 1.032462e-12 1.120957e+01 
8.090170e-01 2.634093e+00 2.634048e+00 -9.499624e-05 -7.965771e-04 0 -7.965771e-04 1.032462e-12 1.120957e+01 
8.660254e-01 2.255018e+00 2.255001e+00 -9.523810e-05 -5.934520e-04 0 -5.934520e-04 1.032462e-12 1.120957e+01 
9.135455e-01 1.686395e+00 1.686310e+00 -9.555200e-05 -1.729356e-03 0 -1.729356e-03 1.032462e-12 1.120957e+01 
9.510565e-01 1.166548e+00 1.166457e+00 -9.607049e-05 -1.201977e-03 0 -1.201977e-03 1.032462e-12 1.120957e+01 
9.781476e-01 7.239209e-01 7.237917e-01 -9.657926e-05 -2.051983e-03 0 -2.051983e-03 1.032462e-12 1.120957e+01 
9.945219e-01 4.586023e-01 4.584642e-01 -9.700016e-05 -1.204459e-03 0 -1.204459e-03 1.032462e-12 1.120957e+01 
1 3.666122e-01 3.664680e-01 -9.714557e-05 -3.128438e-03 0 -3.128438e-03 1.032462e-12 1.120957e+01 
ZONE T="0.009", I=31
-1 3.669300e-01 3.667862e-01 -9.698465e-05 2.782160e-03 0 2.782160e-03 -3.599250e-12 1.109536e+01 
-9.945219e-01 4.534645e-01 4.533262e-01 -9.682921e-05 1.166653e-03 0 1.166653e-03 -3.599250e-12 1.109536e+01 
-9.781476e-01 7.047695e-01 7.046404e-01 -9.638463e-05 1.877859e-03 0 1.877859e-03 -3.599250e-12 1.109536e+01 
-9.510565e-01 1.121718e+00 1.121623e+00 -9.582976e-05 1.170199e-03 0 1.170199e-03 -3.599250e-12 1.109536e+01 
-9.135455e-01 1.623890e+00 1.623805e+00 -9.526230e-05 1.607197e-03 0 1.607197e-03 -3.599250e-12 1.109536e+01 
-8.660254e-01 2.175664e+00 2.175638e+00 -9.488696e-05 6.382156e-04 0 6.382156e-04 -3.599250e-12 1.109536e+01 
-8.090170e-01 2.577276e+00 2.577234e+00 -9.461488e-05 7.995674e-04 0 7.995674e-04 -3.599250e-12 1.109536e+01 
-7.431448e-01 2.871134e+00 2.871151e+00 -9.457791e-05 1.322922e-05 0 1.322922e-05 -3.599250e-12 1.109536e+01 
-6.691306e-01 2.945708e+00 2.945682e+00 -9.447556e-05 2.502376e-04 0 2.502376e-04 -3.599250e-12 1.109536e+01 
-5.877853e-01 3.012716e+00 3.012740e+00 -9.454796e-05 -1.560427e-04 0 -1.560427e-04 -3.599250e-12 1.109536e+01 
-5.000000e-01 2.980498e+00 2.980472e+00 -9.445261e-05 1.382261e-04 0 1.382261e-04 -3.599250e-12 1.109536e+01 
-4.067366e-01 3.019215e+00 3.019241e+00 -9.455033e-05 -1.153913e-04 0 -1.153913e-04 -3.599250e-12 1.109536e+01 
-3.090170e-01 2.980280e+00 2.980255e+00 -9.443906e-05 8.335592e-05 0 8.335592e-05 -3.599250e-12 1.109536e+01 
-2.079117e-01 3.019913e+00 3.019939e+00 -9.455313e-05 -5.831838e-05 0 -5.831838e-05 -3.599250e-12 1.109536e+01 
-1.045285e-01 2.979821e+00 2.979795e+00 -9.443164e-05 2.789040e-05 0 2.789040e-05 -3.599250e-12 1.109536e+01 
-3.330669e-16 3.020159e+00 3.020185e+00 -9.455421e-05 2.329704e-11 0 2.329704e-11 -3.599250e-12 1.109536e+01 
1.045285e-01 2.979821e+00 2.979795e+00 -9.443164e-05 -2.789037e-05 0 -2.789037e-05 -3.599250e-12 1.109536e+01 
2.079117e-01 3.019913e+00 3.019939e+00 -9.455313e-05 5.831749e-05 0 5.831749e-05 -3.599250e-12 1.109536e+01 
3.090170e-01 2.980280e+00 2.980255e+00 -9.443906e-05 -8.335425e-05 0 -8.335425e-05 -3.599250e-12 1.109536e+01 
4.067366e-01 3.019215e+00 3.019241e+00 -9.455033e-05 1.153900e-04 0 1.153900e-04 -3.599250e-12 1.109536e+01 
5.000000e-01 2.980498e+00 2.980472e+00 -9.445261e-05 -1.382255e-04 0 -1.382255e-04 -3.599250e-12 1.109536e+01 
5.877853e-01 3.012716e+00 3.012740e+00 -9.454796e-05 1.560423e-04 0 1.560423e-04 -3.599250e-12 1.109536e+01 
6.691306e-01 2.945708e+00 2.945682e+00 -9.447556e-05 -2.502376e-04 0 -2.502376e-04 -3.599250e-12 1.109536e+01 