TITLE = "2 species of PNP-Steric with high order term" 
VARIABLES = "X" "Conc1" "Conc2" "phi" "Current_x""I_ext" "I_PNP" "CURRENT" "ENERGY" "
ZONE T="2.8406e-10", I=101
-1 3.179254e+00 3.179265e+00 -1.000000e-04 -1.429123e-11 0 -1.640513e-11 -5.502840e-15 1.318335e+01 
-9.995066e-01 3.031622e+00 3.031624e+00 -1.000000e-04 8.715403e-13 0 6.988004e-13 -5.502840e-15 1.318335e+01 
-9.980267e-01 2.988387e+00 2.988386e+00 -1.000000e-04 1.587174e-12 0 -4.781159e-12 -5.502840e-15 1.318335e+01 
-9.955620e-01 3.006341e+00 3.006341e+00 -1.000000e-04 -1.560752e-12 0 2.838661e-13 -5.502840e-15 1.318335e+01 
-9.921147e-01 2.995907e+00 2.995907e+00 -1.000000e-04 7.836279e-13 0 3.352307e-12 -5.502840e-15 1.318335e+01 
-9.876883e-01 3.002899e+00 3.002900e+00 -1.000000e-04 -3.328122e-13 0 -1.448632e-12 -5.502840e-15 1.318335e+01 
-9.822873e-01 2.997821e+00 2.997821e+00 -1.000000e-04 -3.953248e-13 0 -2.133563e-13 -5.502840e-15 1.318335e+01 
-9.759168e-01 3.001706e+00 3.001707e+00 -1.000000e-04 6.621858e-13 0 -1.079793e-12 -5.502840e-15 1.318335e+01 
-9.685832e-01 2.998623e+00 2.998623e+00 -1.000000e-04 5.290910e-13 0 7.416035e-13 -5.502840e-15 1.318335e+01 
-9.602937e-01 3.001137e+00 3.001137e+00 -1.000000e-04 -1.340398e-13 0 -2.768108e-13 -5.502840e-15 1.318335e+01 
-9.510565e-01 2.999044e+00 2.999044e+00 -1.000000e-04 -2.284715e-13 0 -5.288284e-15 -5.502840e-15 1.318335e+01 
-9.408808e-01 3.000816e+00 3.000816e+00 -1.000000e-04 -5.141357e-13 0 4.484828e-13 -5.502840e-15 1.318335e+01 
-9.297765e-01 2.999295e+00 2.999295e+00 -1.000000e-04 7.188175e-13 0 -1.315931e-13 -5.502840e-15 1.318335e+01 
-9.177546e-01 3.000615e+00 3.000615e+00 -1.000000e-04 -8.711304e-13 0 -9.712608e-13 -5.502840e-15 1.318335e+01 
-9.048271e-01 2.999459e+00 2.999459e+00 -1.000000e-04 4.686610e-13 0 7.460942e-13 -5.502840e-15 1.318335e+01 
-8.910065e-01 3.000479e+00 3.000479e+00 -1.000000e-04 -4.979569e-13 0 -3.553298e-13 -5.502840e-15 1.318335e+01 
-8.763067e-01 2.999573e+00 2.999573e+00 -1.000000e-04 6.750849e-13 0 2.635316e-13 -5.502840e-15 1.318335e+01 
-8.607420e-01 3.000383e+00 3.000383e+00 -1.000000e-04 -3.973295e-13 0 -3.568259e-13 -5.502840e-15 1.318335e+01 
-8.443279e-01 2.999655e+00 2.999655e+00 -1.000000e-04 -3.066303e-13 0 1.672552e-13 -5.502840e-15 1.318335e+01 
-8.270806e-01 3.000312e+00 3.000312e+00 -1.000000e-04 7.895344e-13 0 1.561641e-14 -5.502840e-15 1.318335e+01 
-8.090170e-01 2.999717e+00 2.999717e+00 -1.000000e-04 -5.043334e-13 0 -8.166539e-14 -5.502840e-15 1.318335e+01 
-7.901550e-01 3.000258e+00 3.000258e+00 -1.000000e-04 4.729608e-13 0 1.292265e-12 -5.502840e-15 1.318335e+01 
-7.705132e-01 2.999765e+00 2.999765e+00 -1.000000e-04 -2.660211e-13 0 -1.069701e-12 -5.502840e-15 1.318335e+01 
-7.501111e-01 3.000215e+00 3.000215e+00 -1.000000e-04 -8.913299e-13 0 -6.203029e-13 -5.502840e-15 1.318335e+01 
-7.289686e-01 2.999803e+00 2.999803e+00 -1.000000e-04 9.748477e-13 0 1.261573e-12 -5.502840e-15 1.318335e+01 
-7.071068e-01 3.000181e+00 3.000181e+00 -1.000000e-04 -2.961382e-13 0 -2.688154e-13 -5.502840e-15 1.318335e+01 
-6.845471e-01 2.999834e+00 2.999834e+00 -1.000000e-04 7.035885e-13 0 3.046480e-13 -5.502840e-15 1.318335e+01 
-6.613119e-01 3.000153e+00 3.000153e+00 -1.000000e-04 -8.407708e-13 0 -1.200700e-12 -5.502840e-15 1.318335e+01 
-6.374240e-01 2.999859e+00 2.999859e+00 -1.000000e-04 9.217604e-14 0 1.105315e-12 -5.502840e-15 1.318335e+01 
-6.129071e-01 3.000130e+00 3.000130e+00 -1.000000e-04 -8.661669e-14 0 -9.259357e-13 -5.502840e-15 1.318335e+01 
-5.877853e-01 2.999880e+00 2.999880e+00 -1.000000e-04 -5.642108e-13 0 -2.823956e-13 -5.502840e-15 1.318335e+01 
-5.620834e-01 3.000110e+00 3.000110e+00 -1.000000e-04 1.248066e-12 0 1.417152e-12 -5.502840e-15 1.318335e+01 
-5.358268e-01 2.999899e+00 2.999899e+00 -1.000000e-04 -5.806388e-13 0 -1.048679e-12 -5.502840e-15 1.318335e+01 
-5.090414e-01 3.000093e+00 3.000093e+00 -1.000000e-04 -2.246112e-13 0 -1.932067e-13 -5.502840e-15 1.318335e+01 
-4.817537e-01 2.999915e+00 2.999915e+00 -1.000000e-04 5.145161e-13 0 1.047074e-12 -5.502840e-15 1.318335e+01 
-4.539905e-01 3.000078e+00 3.000078e+00 -1.000000e-04 -4.918719e-13 0 -9.366443e-13 -5.502840e-15 1.318335e+01 
-4.257793e-01 2.999929e+00 2.999929e+00 -1.000000e-04 9.220852e-13 0 1.047999e-12 -5.502840e-15 1.318335e+01 
-3.971479e-01 3.000065e+00 3.000065e+00 -1.000000e-04 -6.844899e-13 0 -5.054674e-13 -5.502840e-15 1.318335e+01 
-3.681246e-01 2.999941e+00 2.999941e+00 -1.000000e-04 2.314571e-13 0 2.780112e-13 -5.502840e-15 1.318335e+01 
-3.387379e-01 3.000053e+00 3.000053e+00 -1.000000e-04 -2.827583e-14 0 -4.660269e-13 -5.502840e-15 1.318335e+01 
-3.090170e-01 2.999952e+00 2.999952e+00 -1.000000e-04 -6.621118e-13 0 -6.590450e-13 -5.502840e-15 1.318335e+01 
-2.789911e-01 3.000042e+00 3.000042e+00 -1.000000e-04 1.496835e-13 0 1.035722e-13 -5.502840e-15 1.318335e+01 
-2.486899e-01 2.999963e+00 2.999963e+00 -1.000000e-04 -1.732361e-13 0 -1.515585e-13 -5.502840e-15 1.318335e+01 
-2.181432e-01 3.000032e+00 3.000032e+00 -1.000000e-04 2.686510e-13 0 2.094736e-13 -5.502840e-15 1.318335e+01 
-1.873813e-01 2.999973e+00 2.999973e+00 -1.000000e-04 5.168899e-13 0 7.964022e-13 -5.502840e-15 1.318335e+01 
-1.564345e-01 3.000023e+00 3.000023e+00 -1.000000e-04 -5.985925e-13 0 -4.074483e-13 -5.502840e-15 1.318335e+01 
-1.253332e-01 2.999982e+00 2.999982e+00 -1.000000e-04 -1.071014e-14 0 -3.504300e-13 -5.502840e-15 1.318335e+01 
-9.410831e-02 3.000013e+00 3.000013e+00 -1.000000e-04 7.083214e-13 0 6.015331e-13 -5.502840e-15 1.318335e+01 
-6.279052e-02 2.999991e+00 2.999991e+00 -1.000000e-04 -5.761856e-13 0 -3.618108e-13 -5.502840e-15 1.318335e+01 
-3.141076e-02 3.000004e+00 3.000004e+00 -1.000000e-04 1.216783e-13 0 1.918615e-13 -5.502840e-15 1.318335e+01 
-1.110223e-16 3 3 -1.000000e-04 2.257680e-13 0 2.257680e-13 -5.502840e-15 1.318335e+01 
3.141076e-02 2.999996e+00 2.999996e+00 -1.000000e-04 1.558031e-13 0 8.561989e-14 -5.502840e-15 1.318335e+01 
6.279052e-02 3.000009e+00 3.000009e+00 -1.000000e-04 -1.038348e-12 0 -1.252722e-12 -5.502840e-15 1.318335e+01 
9.410831e-02 2.999987e+00 2.999987e+00 -1.000000e-04 1.033454e-12 0 1.140242e-12 -5.502840e-15 1.318335e+01 
1.253332e-01 3.000018e+00 3.000018e+00 -1.000000e-04 -1.490908e-14 0 3.248108e-13 -5.502840e-15 1.318335e+01 
1.564345e-01 2.999977e+00 2.999977e+00 -1.000000e-04 -4.904641e-13 0 -6.816083e-13 -5.502840e-15 1.318335e+01 
1.873813e-01 3.000027e+00 3.000027e+00 -1.000000e-04 2.460046e-14 0 -2.549118e-13 -5.502840e-15 1.318335e+01 
2.181432e-01 2.999968e+00 2.999968e+00 -1.000000e-04 9.525136e-14 0 1.544288e-13 -5.502840e-15 1.318335e+01 
2.486899e-01 3.000037e+00 3.000037e+00 -1.000000e-04 4.994886e-13 0 4.778110e-13 -5.502840e-15 1.318335e+01 
2.789911e-01 2.999958e+00 2.999958e+00 -1.000000e-04 -5.160240e-13 0 -4.699128e-13 -5.502840e-15 1.318335e+01 
3.090170e-01 3.000048e+00 3.000048e+00 -1.000000e-04 4.658974e-13 0 4.628306e-13 -5.502840e-15 1.318335e+01 
3.387379e-01 2.999947e+00 2.999947e+00 -1.000000e-04 -1.724829e-13 0 2.652681e-13 -5.502840e-15 1.318335e+01 
3.681246e-01 3.000059e+00 3.000059e+00 -1.000000e-04 -8.061402e-14 0 -1.271681e-13 -5.502840e-15 1.318335e+01 
3.971479e-01 2.999935e+00 2.999935e+00 -1.000000e-04 2.288969e-13 0 4.987444e-14 -5.502840e-15 1.318335e+01 
4.257793e-01 3.000071e+00 3.000071e+00 -1.000000e-04 1.285536e-14 0 -1.130584e-13 -5.502840e-15 1.318335e+01 
4.539905e-01 2.999922e+00 2.999922e+00 -1.000000e-04 -1.941582e-13 0 2.506142e-13 -5.502840e-15 1.318335e+01 
4.817537e-01 3.000085e+00 3.000085e+00 -1.000000e-04 -1.369301e-13 0 -6.694877e-13 -5.502840e-15 1.318335e+01 
5.090414e-01 2.999907e+00 2.999907e+00 -1.000000e-04 -4.090084e-14 0 -7.230530e-14 -5.502840e-15 1.318335e+01 
5.358268e-01 3.000101e+00 3.000101e+00 -1.000000e-04 4.168974e-15 0 4.722094e-13 -5.502840e-15 1.318335e+01 
5.620834e-01 2.999890e+00 2.999890e+00 -1.000000e-04 2.653278e-13 0 9.624133e-14 -5.502840e-15 1.318335e+01 
5.877853e-01 3.000120e+00 3.000120e+00 -1.000000e-04 1.070172e-13 0 -1.747980e-13 -5.502840e-15 1.318335e+01 
6.129071e-01 2.999870e+00 2.999870e+00 -1.000000e-04 -5.919079e-13 0 2.474111e-13 -5.502840e-15 1.318335e+01 
6.374240e-01 3.000141e+00 3.000141e+00 -1.000000e-04 7.726137e-13 0 -2.405248e-13 -5.502840e-15 1.318335e+01 
6.613119e-01 2.999847e+00 2.999847e+00 -1.000000e-04 -3.605025e-13 0 -5.735078e-16 -5.502840e-15 1.318335e+01 
6.845471e-01 3.000166e+00 3.000166e+00 -1.000000e-04 -5.192797e-13 0 -1.203392e-13 -5.502840e-15 1.318335e+01 
7.071068e-01 2.999819e+00 2.999819e+00 -1.000000e-04 2.259255e-13 0 1.986027e-13 -5.502840e-15 1.318335e+01 
7.289686e-01 3.000197e+00 3.000197e+00 -1.000000e-04 -9.908758e-14 0 -3.858126e-13 -5.502840e-15 1.318335e+01 
7.501111e-01 2.999785e+00 2.999785e+00 -1.000000e-04 2.593306e-13 0 -1.169640e-14 -5.502840e-15 1.318335e+01 
7.705132e-01 3.000235e+00 3.000235e+00 -1.000000e-04 -6.793312e-13 0 1.243487e-13 -5.502840e-15 1.318335e+01 
7.901550e-01 2.999742e+00 2.999742e+00 -1.000000e-04 4.440559e-13 0 -3.752487e-13 -5.502840e-15 1.318335e+01 
8.090170e-01 3.000283e+00 3.000283e+00 -1.000000e-04 1.819548e-13 0 -2.407132e-13 -5.502840e-15 1.318335e+01 
8.270806e-01 2.999688e+00 2.999688e+00 -1.000000e-04 -2.698064e-13 0 5.041116e-13 -5.502840e-15 1.318335e+01 
8.443279e-01 3.000345e+00 3.000345e+00 -1.000000e-04 -3.332320e-14 0 -5.072087e-13 -5.502840e-15 1.318335e+01 
8.607420e-01 2.999617e+00 2.999617e+00 -1.000000e-04 4.458280e-14 0 4.079241e-15 -5.502840e-15 1.318335e+01 
8.763067e-01 3.000427e+00 3.000427e+00 -1.000000e-04 -8.255507e-14 0 3.289983e-13 -5.502840e-15 1.318335e+01 
8.910065e-01 2.999521e+00 2.999521e+00 -1.000000e-04 6.741502e-14 0 -7.521206e-14 -5.502840e-15 1.318335e+01 
9.048271e-01 3.000541e+00 3.000541e+00 -1.000000e-04 -3.212409e-14 0 -3.095574e-13 -5.502840e-15 1.318335e+01 
9.177546e-01 2.999385e+00 2.999385e+00 -1.000000e-04 2.594945e-13 0 3.596250e-13 -5.502840e-15 1.318335e+01 
9.297765e-01 3.000705e+00 3.000705e+00 -1.000000e-04 -6.920852e-13 0 1.583253e-13 -5.502840e-15 1.318335e+01 
9.408808e-01 2.999184e+00 2.999184e+00 -1.000000e-04 2.589707e-13 0 -7.036479e-13 -5.502840e-15 1.318335e+01 
9.510565e-01 3.000956e+00 3.000956e+00 -1.000000e-04 6.465877e-13 0 4.234045e-13 -5.502840e-15 1.318335e+01 
9.602937e-01 2.998863e+00 2.998863e+00 -1.000000e-04 -5.420158e-13 0 -3.992448e-13 -5.502840e-15 1.318335e+01 
9.685832e-01 3.001377e+00 3.001377e+00 -1.000000e-04 8.770751e-13 0 6.645626e-13 -5.502840e-15 1.318335e+01 
9.759168e-01 2.998294e+00 2.998293e+00 -1.000000e-04 -4.678132e-13 0 1.274166e-12 -5.502840e-15 1.318335e+01 
9.822873e-01 3.002179e+00 3.002179e+00 -1.000000e-04 -2.892237e-13 0 -4.711922e-13 -5.502840e-15 1.318335e+01 
9.876883e-01 2.997101e+00 2.997100e+00 -1.000000e-04 2.781250e-13 0 1.393945e-12 -5.502840e-15 1.318335e+01 
9.921147e-01 3.004093e+00 3.004093e+00 -1.000000e-04 3.002030e-13 0 -2.268476e-12 -5.502840e-15 1.318335e+01 
9.955620e-01 2.993659e+00 2.993659e+00 -1.000000e-04 1.646030e-12 0 -1.985887e-13 -5.502840e-15 1.318335e+01 
9.980267e-01 3.011613e+00 3.011614e+00 -1.000000e-04 -4.092862e-12 0 2.275471e-12 -5.502840e-15 1.318335e+01 
9.995066e-01 2.968378e+00 2.968376e+00 -1.000000e-04 8.022075e-13 0 9.749474e-13 -5.502840e-15 1.318335e+01 
1 2.820746e+00 2.820735e+00 -1.000000e-04 1.125696e-11 0 1.337085e-11 -5.502840e-15 1.318335e+01 
ZONE T="5.6813e-10", I=101
-1 3.379939e+00 3.379962e+00 -1.000004e-04 -1.591061e-01 0 -5.713876e-02 -1.604451e-04 1.318335e+01 
-9.995066e-01 3.067438e+00 3.067442e+00 -1.000004e-04 -5.398245e-02 0 -2.058044e-02 -1.604451e-04 1.318335e+01 
-9.980267e-01 2.975469e+00 2.975468e+00 -1.000004e-04 7.653483e-03 0 2.906673e-03 -1.604451e-04 1.318335e+01 
-9.955620e-01 3.013390e+00 3.013391e+00 -1.000004e-04 -2.645430e-03 0 -9.773998e-04 -1.604451e-04 1.318335e+01 
-9.921147e-01 2.991358e+00 2.991357e+00 -1.000004e-04 1.234579e-03 0 4.512745e-04 -1.604451e-04 1.318335e+01 
-9.876883e-01 3.006121e+00 3.006121e+00 -1.000004e-04 -7.014109e-04 0 -2.522870e-04 -1.604451e-04 1.318335e+01 
-9.822873e-01 2.995401e+00 2.995401e+00 -1.000004e-04 4.396901e-04 0 1.567443e-04 -1.604451e-04 1.318335e+01 
-9.759168e-01 3.003600e+00 3.003601e+00 -1.000004e-04 -3.004705e-04 0 -1.059254e-04 -1.604451e-04 1.318335e+01 
-9.685832e-01 2.997096e+00 2.997095e+00 -1.000004e-04 2.154316e-04 0 7.541589e-05 -1.604451e-04 1.318335e+01 
-9.602937e-01 3.002397e+00 3.002398e+00 -1.000004e-04 -1.621971e-04 0 -5.633217e-05 -1.604451e-04 1.318335e+01 
-9.510565e-01 2.997985e+00 2.997985e+00 -1.000004e-04 1.256162e-04 0 4.339666e-05 -1.604451e-04 1.318335e+01 
-9.408808e-01 3.001718e+00 3.001719e+00 -1.000004e-04 -1.004278e-04 0 -3.450795e-05 -1.604451e-04 1.318335e+01 
-9.297765e-01 2.998517e+00 2.998517e+00 -1.000004e-04 8.178945e-05 0 2.799708e-05 -1.604451e-04 1.318335e+01 
-9.177546e-01 3.001293e+00 3.001293e+00 -1.000004e-04 -6.813394e-05 0 -2.324674e-05 -1.604451e-04 1.318335e+01 
-9.048271e-01 2.998863e+00 2.998863e+00 -1.000004e-04 5.749815e-05 0 1.956936e-05 -1.604451e-04 1.318335e+01 
-8.910065e-01 3.001007e+00 3.001007e+00 -1.000003e-04 -4.936339e-05 0 -1.677777e-05 -1.604451e-04 1.318335e+01 
-8.763067e-01 2.999103e+00 2.999103e+00 -1.000003e-04 4.278172e-05 0 1.452162e-05 -1.604451e-04 1.318335e+01 
-8.607420e-01 3.000803e+00 3.000803e+00 -1.000003e-04 -3.759054e-05 0 -1.276402e-05 -1.604451e-04 1.318335e+01 
-8.443279e-01 2.999277e+00 2.999277e+00 -1.000003e-04 3.326293e-05 0 1.129107e-05 -1.604451e-04 1.318335e+01 
-8.270806e-01 3.000653e+00 3.000653e+00 -1.000003e-04 -2.977313e-05 0 -1.012583e-05 -1.604451e-04 1.318335e+01 
-8.090170e-01 2.999408e+00 2.999408e+00 -1.000003e-04 2.679116e-05 0 9.116765e-06 -1.604451e-04 1.318335e+01 
-7.901550e-01 3.000539e+00 3.000539e+00 -1.000003e-04 -2.434859e-05 0 -8.313308e-06 -1.604451e-04 1.318335e+01 
-7.705132e-01 2.999509e+00 2.999509e+00 -1.000003e-04 2.221654e-05 0 7.595217e-06 -1.604451e-04 1.318335e+01 
-7.501111e-01 3.000449e+00 3.000449e+00 -1.000003e-04 -2.045206e-05 0 -7.024436e-06 -1.604451e-04 1.318335e+01 
-7.289686e-01 2.999589e+00 2.999589e+00 -1.000003e-04 1.888211e-05 0 6.497657e-06 -1.604451e-04 1.318335e+01 
-7.071068e-01 3.000377e+00 3.000377e+00 -1.000003e-04 -1.757550e-05 0 -6.083104e-06 -1.604451e-04 1.318335e+01 
-6.845471e-01 2.999654e+00 2.999654e+00 -1.000003e-04 1.639195e-05 0 5.687217e-06 -1.604451e-04 1.318335e+01 
-6.613119e-01 3.000318e+00 3.000318e+00 -1.000003e-04 -1.540573e-05 0 -5.381509e-06 -1.604451e-04 1.318335e+01 
-6.374240e-01 2.999708e+00 2.999708e+00 -1.000002e-04 1.449679e-05 0 5.078328e-06 -1.604451e-04 1.318335e+01 
-6.129071e-01 3.000269e+00 3.000269e+00 -1.000002e-04 -1.374185e-05 0 -4.850972e-06 -1.604451e-04 1.318335e+01 
-5.877853e-01 2.999753e+00 2.999753e+00 -1.000002e-04 1.303389e-05 0 4.615529e-06 -1.604451e-04 1.318335e+01 
-5.620834e-01 3.000227e+00 3.000227e+00 -1.000002e-04 -1.245065e-05 0 -4.446280e-06 -1.604451e-04 1.318335e+01 
-5.358268e-01 2.999791e+00 2.999791e+00 -1.000002e-04 1.189380e-05 0 4.261783e-06 -1.604451e-04 1.318335e+01 
-5.090414e-01 3.000192e+00 3.000192e+00 -1.000002e-04 -1.144137e-05 0 -4.136864e-06 -1.604451e-04 1.318335e+01 
-4.817537e-01 2.999824e+00 2.999824e+00 -1.000002e-04 1.100104e-05 0 3.991764e-06 -1.604451e-04 1.318335e+01 
-4.539905e-01 3.000161e+00 3.000161e+00 -1.000002e-04 -1.065078e-05 0 -3.901613e-06 -1.604451e-04 1.318335e+01 
-4.257793e-01 2.999854e+00 2.999854e+00 -1.000002e-04 1.030256e-05 0 3.787839e-06 -1.604451e-04 1.318335e+01 
-3.971479e-01 3.000133e+00 3.000133e+00 -1.000002e-04 -1.003409e-05 0 -3.725736e-06 -1.604451e-04 1.318335e+01 
-3.681246e-01 2.999880e+00 2.999880e+00 -1.000001e-04 9.760514e-06 0 3.637596e-06 -1.604451e-04 1.318335e+01 
-3.387379e-01 3.000108e+00 3.000108e+00 -1.000001e-04 -9.559219e-06 0 -3.598792e-06 -1.604451e-04 1.318335e+01 
-3.090170e-01 2.999903e+00 2.999903e+00 -1.000001e-04 9.347732e-06 0 3.532272e-06 -1.604451e-04 1.318335e+01 
-2.789911e-01 3.000086e+00 3.000086e+00 -1.000001e-04 -9.203098e-06 0 -3.513440e-06 -1.604451e-04 1.318335e+01 
-2.486899e-01 2.999925e+00 2.999925e+00 -1.000001e-04 9.044709e-06 0 3.465752e-06 -1.604451e-04 1.318335e+01 
-2.181432e-01 3.000065e+00 3.000065e+00 -1.000001e-04 -8.949260e-06 0 -3.464615e-06 -1.604451e-04 1.318335e+01 
-1.873813e-01 2.999945e+00 2.999945e+00 -1.000001e-04 8.837656e-06 0 3.433903e-06 -1.604451e-04 1.318335e+01 
-1.564345e-01 3.000046e+00 3.000046e+00 -1.000001e-04 -8.786247e-06 0 -3.449004e-06 -1.604451e-04 1.318335e+01 
-1.253332e-01 2.999964e+00 2.999964e+00 -1.000000e-04 8.717207e-06 0 3.434150e-06 -1.604451e-04 1.318335e+01 
-9.410831e-02 3.000027e+00 3.000027e+00 -1.000000e-04 -8.706560e-06 0 -3.464707e-06 -1.604451e-04 1.318335e+01 
-6.279052e-02 2.999982e+00 2.999982e+00 -1.000000e-04 8.677594e-06 0 3.465222e-06 -1.604451e-04 1.318335e+01 
-3.141076e-02 3.000009e+00 3.000009e+00 -1.000000e-04 -8.706010e-06 0 -3.511037e-06 -1.604451e-04 1.318335e+01 
-1.110223e-16 3.000000e+00 3.000000e+00 -1.000000e-04 8.716128e-06 0 3.526999e-06 -1.604451e-04 1.318335e+01 
3.141076e-02 2.999991e+00 2.999991e+00 -9.999999e-05 -8.783334e-06 0 -3.588422e-06 -1.604451e-04 1.318335e+01 
6.279052e-02 3.000018e+00 3.000018e+00 -9.999998e-05 8.832953e-06 0 3.620457e-06 -1.604451e-04 1.318335e+01 
9.410831e-02 2.999973e+00 2.999973e+00 -9.999996e-05 -8.940064e-06 0 -3.698397e-06 -1.604451e-04 1.318335e+01 
1.253332e-01 3.000036e+00 3.000036e+00 -9.999995e-05 9.031025e-06 0 3.747715e-06 -1.604451e-04 1.318335e+01 
1.564345e-01 2.999955e+00 2.999955e+00 -9.999994e-05 -9.180603e-06 0 -3.843681e-06 -1.604451e-04 1.318335e+01 
1.873813e-01 3.000054e+00 3.000054e+00 -9.999993e-05 9.316278e-06 0 3.912132e-06 -1.604451e-04 1.318335e+01 
2.181432e-01 2.999937e+00 2.999937e+00 -9.999991e-05 -9.512509e-06 0 -4.028333e-06 -1.604451e-04 1.318335e+01 
2.486899e-01 3.000073e+00 3.000073e+00 -9.999990e-05 9.698052e-06 0 4.118545e-06 -1.604451e-04 1.318335e+01 
2.789911e-01 2.999917e+00 2.999917e+00 -9.999989e-05 -9.947059e-06 0 -4.258041e-06 -1.604451e-04 1.318335e+01 
3.090170e-01 3.000094e+00 3.000094e+00 -9.999988e-05 1.018980e-05 0 4.373598e-06 -1.604451e-04 1.318335e+01 
3.387379e-01 2.999896e+00 2.999896e+00 -9.999987e-05 -1.050011e-05 0 -4.540528e-06 -1.604451e-04 1.318335e+01 
3.681246e-01 3.000116e+00 3.000116e+00 -9.999986e-05 1.081014e-05 0 4.686259e-06 -1.604451e-04 1.318335e+01 
3.971479e-01 2.999873e+00 2.999873e+00 -9.999984e-05 -1.119344e-05 0 -4.886182e-06 -1.604451e-04 1.318335e+01 
4.257793e-01 3.000140e+00 3.000140e+00 -9.999983e-05 1.158453e-05 0 5.068570e-06 -1.604451e-04 1.318335e+01 
4.539905e-01 2.999847e+00 2.999847e+00 -9.999982e-05 -1.205672e-05 0 -5.308962e-06 -1.604451e-04 1.318335e+01 
4.817537e-01 3.000166e+00 3.000166e+00 -9.999981e-05 1.254763e-05 0 5.536753e-06 -1.604451e-04 1.318335e+01 
5.090414e-01 2.999819e+00 2.999819e+00 -9.999980e-05 -1.313043e-05 0 -5.827741e-06 -1.604451e-04 1.318335e+01 
5.358268e-01 3.000197e+00 3.000197e+00 -9.999979e-05 1.374694e-05 0 6.112861e-06 -1.604451e-04 1.318335e+01 
5.620834e-01 2.999786e+00 2.999786e+00 -9.999978e-05 -1.447037e-05 0 -6.468346e-06 -1.604451e-04 1.318335e+01 
5.877853e-01 3.000232e+00 3.000232e+00 -9.999977e-05 1.524834e-05 0 6.827289e-06 -1.604451e-04 1.318335e+01 
6.129071e-01 2.999749e+00 2.999749e+00 -9.999976e-05 -1.615446e-05 0 -7.266662e-06 -1.604451e-04 1.318335e+01 
6.374240e-01 3.000272e+00 3.000272e+00 -9.999975e-05 1.714467e-05 0 7.722672e-06 -1.604451e-04 1.318335e+01 
6.613119e-01 2.999704e+00 2.999704e+00 -9.999974e-05 -1.829367e-05 0 -8.273538e-06 -1.604451e-04 1.318335e+01 
6.845471e-01 3.000321e+00 3.000321e+00 -9.999973e-05 1.956959e-05 0 8.860101e-06 -1.604451e-04 1.318335e+01 
7.071068e-01 2.999651e+00 2.999651e+00 -9.999972e-05 -2.104958e-05 0 -9.562730e-06 -1.604451e-04 1.318335e+01 
7.289686e-01 3.000379e+00 3.000379e+00 -9.999971e-05 2.272036e-05 0 1.032939e-05 -1.604451e-04 1.318335e+01 
7.501111e-01 2.999587e+00 2.999587e+00 -9.999971e-05 -2.466416e-05 0 -1.124424e-05 -1.604451e-04 1.318335e+01 
7.705132e-01 3.000451e+00 3.000451e+00 -9.999970e-05 2.689712e-05 0 1.226663e-05 -1.604451e-04 1.318335e+01 
7.901550e-01 2.999506e+00 2.999506e+00 -9.999969e-05 -2.951187e-05 0 -1.348761e-05 -1.604451e-04 1.318335e+01 
8.090170e-01 3.000542e+00 3.000542e+00 -9.999968e-05 3.257333e-05 0 1.488558e-05 -1.604451e-04 1.318335e+01 
8.270806e-01 2.999404e+00 2.999404e+00 -9.999968e-05 -3.619562e-05 0 -1.656467e-05 -1.604451e-04 1.318335e+01 
8.443279e-01 3.000659e+00 3.000659e+00 -9.999967e-05 4.052894e-05 0 1.853685e-05 -1.604451e-04 1.318335e+01 
8.607420e-01 2.999269e+00 2.999269e+00 -9.999966e-05 -4.573354e-05 0 -2.093237e-05 -1.604451e-04 1.318335e+01 
8.763067e-01 3.000815e+00 3.000815e+00 -9.999966e-05 5.211878e-05 0 2.382645e-05 -1.604451e-04 1.318335e+01 
8.910065e-01 2.999087e+00 2.999087e+00 -9.999965e-05 -5.994905e-05 0 -2.740505e-05 -1.604451e-04 1.318335e+01 
9.048271e-01 3.001029e+00 3.001029e+00 -9.999965e-05 6.985600e-05 0 3.187247e-05 -1.604451e-04 1.318335e+01 
9.177546e-01 2.998831e+00 2.998831e+00 -9.999964e-05 -8.235780e-05 0 -3.754413e-05 -1.604451e-04 1.318335e+01 
9.297765e-01 3.001339e+00 3.001339e+00 -9.999964e-05 9.881009e-05 0 4.491654e-05 -1.604451e-04 1.318335e+01 
9.408808e-01 2.998450e+00 2.998450e+00 -9.999963e-05 -1.204181e-04 0 -5.464159e-05 -1.604451e-04 1.318335e+01 
9.510565e-01 3.001815e+00 3.001815e+00 -9.999963e-05 1.504035e-04 0 6.797406e-05 -1.604451e-04 1.318335e+01 
9.602937e-01 2.997843e+00 2.997843e+00 -9.999962e-05 -1.921305e-04 0 -8.658619e-05 -1.604451e-04 1.318335e+01 
9.685832e-01 3.002611e+00 3.002611e+00 -9.999962e-05 2.546422e-04 0 1.141113e-04 -1.604451e-04 1.318335e+01 
9.759168e-01 2.996766e+00 2.996766e+00 -9.999962e-05 -3.497508e-04 0 -1.560890e-04 -1.604451e-04 1.318335e+01 
9.822873e-01 3.004128e+00 3.004128e+00 -9.999962e-05 5.106496e-04 0 2.260547e-04 -1.604451e-04 1.318335e+01 
9.876883e-01 2.994510e+00 2.994509e+00 -9.999961e-05 -7.960647e-04 0 -3.504001e-04 -1.604451e-04 1.318335e+01 
9.921147e-01 3.007748e+00 3.007748e+00 -9.999961e-05 1.400852e-03 0 6.089507e-04 -1.604451e-04 1.318335e+01 
9.955620e-01 2.988001e+00 2.988001e+00 -9.999961e-05 -2.884549e-03 0 -1.244489e-03 -1.604451e-04 1.318335e+01 
9.980267e-01 3.021974e+00 3.021976e+00 -9.999961e-05 8.460506e-03 0 3.564382e-03 -1.604451e-04 1.318335e+01 
9.995066e-01 2.939560e+00 2.939557e+00 -9.999961e-05 -5.296953e-02 0 -2.227026e-02 -1.604451e-04 1.318335e+01 
1 2.659576e+00 2.659555e+00 -9.999961e-05 -1.149839e-01 0 -5.235663e-02 -1.604451e-04 1.318335e+01 
ZONE T="8.5219e-10", I=101
-1 3.606034e+00 3.606072e+00 -1.000008e-04 -3.939719e-01 0 -1.276725e-01 -3.279319e-04 1.318342e+01 
-9.995066e-01 3.108236e+00 3.108243e+00 -1.000008e-04 -1.176435e-01 0 -4.258829e-02 -3.279319e-04 1.318342e+01 
-9.980267e-01 2.960996e+00 2.960994e+00 -1.000008e-04 1.558181e-02 0 5.581821e-03 -3.279319e-04 1.318342e+01 
-9.955620e-01 3.021282e+00 3.021283e+00 -1.000008e-04 -5.439582e-03 0 -1.828899e-03 -3.279319e-04 1.318342e+01 
-9.921147e-01 2.986267e+00 2.986266e+00 -1.000008e-04 2.480791e-03 0 8.112004e-04 -3.279319e-04 1.318342e+01 
-9.876883e-01 3.009725e+00 3.009725e+00 -1.000008e-04 -1.409909e-03 0 -4.428170e-04 -3.279319e-04 1.318342e+01 
-9.822873e-01 2.992695e+00 2.992694e+00 -1.000008e-04 8.714740e-04 0 2.669547e-04 -3.279319e-04 1.318342e+01 
-9.759168e-01 3.005717e+00 3.005718e+00 -1.000008e-04 -5.946462e-04 0 -1.767584e-04 -3.279319e-04 1.318342e+01 
-9.685832e-01 2.995390e+00 2.995389e+00 -1.000008e-04 4.221310e-04 0 1.228798e-04 -3.279319e-04 1.318342e+01 
-9.602937e-01 3.003804e+00 3.003804e+00 -1.000008e-04 -3.172366e-04 0 -9.025229e-05 -3.279319e-04 1.318342e+01 
-9.510565e-01 2.996804e+00 2.996804e+00 -1.000008e-04 2.438641e-04 0 6.822677e-05 -3.279319e-04 1.318342e+01 
-9.408808e-01 3.002724e+00 3.002724e+00 -1.000008e-04 -1.946329e-04 0 -5.353968e-05 -3.279319e-04 1.318342e+01 
-9.297765e-01 2.997650e+00 2.997650e+00 -1.000008e-04 1.576069e-04 0 4.281227e-05 -3.279319e-04 1.318342e+01 
-9.177546e-01 3.002048e+00 3.002048e+00 -1.000008e-04 -1.311105e-04 0 -3.520934e-05 -3.279319e-04 1.318342e+01 
-9.048271e-01 2.998201e+00 2.998201e+00 -1.000008e-04 1.101582e-04 0 2.933016e-05 -3.279319e-04 1.318342e+01 
-8.910065e-01 3.001592e+00 3.001592e+00 -1.000008e-04 -9.447812e-05 0 -2.499607e-05 -3.279319e-04 1.318342e+01 
-8.763067e-01 2.998582e+00 2.998582e+00 -1.000008e-04 8.160838e-05 0 2.148830e-05 -3.279319e-04 1.318342e+01 
-8.607420e-01 3.001269e+00 3.001269e+00 -1.000007e-04 -7.166311e-05 0 -1.883957e-05 -3.279319e-04 1.318342e+01 
-8.443279e-01 2.998859e+00 2.998859e+00 -1.000007e-04 6.325751e-05 0 1.660862e-05 -3.279319e-04 1.318342e+01 
-8.270806e-01 3.001030e+00 3.001030e+00 -1.000007e-04 -5.661007e-05 0 -1.490457e-05 -3.279319e-04 1.318342e+01 
-8.090170e-01 2.999067e+00 2.999067e+00 -1.000007e-04 5.085369e-05 0 1.341389e-05 -3.279319e-04 1.318342e+01 
-7.901550e-01 3.000848e+00 3.000848e+00 -1.000007e-04 -4.622672e-05 0 -1.227529e-05 -3.279319e-04 1.318342e+01 
-7.705132e-01 2.999228e+00 2.999228e+00 -1.000007e-04 4.213468e-05 0 1.123997e-05 -3.279319e-04 1.318342e+01 
-7.501111e-01 3.000705e+00 3.000705e+00 -1.000007e-04 -3.881048e-05 0 -1.045848e-05 -3.279319e-04 1.318342e+01 
-7.289686e-01 2.999355e+00 2.999355e+00 -1.000006e-04 3.581393e-05 0 9.717374e-06 -3.279319e-04 1.318342e+01 
-7.071068e-01 3.000591e+00 3.000591e+00 -1.000006e-04 -3.336609e-05 0 -9.171823e-06 -3.279319e-04 1.318342e+01 
-6.845471e-01 2.999458e+00 2.999458e+00 -1.000006e-04 3.111941e-05 0 8.629005e-06 -3.279319e-04 1.318342e+01 
-6.613119e-01 3.000497e+00 3.000497e+00 -1.000006e-04 -2.928280e-05 0 -8.245644e-06 -3.279319e-04 1.318342e+01 
-6.374240e-01 2.999543e+00 2.999543e+00 -1.000006e-04 2.756708e-05 0 7.841579e-06 -3.279319e-04 1.318342e+01 
-6.129071e-01 3.000419e+00 3.000419e+00 -1.000005e-04 -2.617049e-05 0 -7.573783e-06 -3.279319e-04 1.318342e+01 
-5.877853e-01 2.999615e+00 2.999615e+00 -1.000005e-04 2.484221e-05 0 7.270247e-06 -3.279319e-04 1.318342e+01 
-5.620834e-01 3.000354e+00 3.000354e+00 -1.000005e-04 -2.377158e-05 0 -7.087643e-06 -3.279319e-04 1.318342e+01 
-5.358268e-01 2.999675e+00 2.999675e+00 -1.000005e-04 2.273391e-05 0 6.859428e-06 -3.279319e-04 1.318342e+01 
-5.090414e-01 3.000298e+00 3.000298e+00 -1.000005e-04 -2.191129e-05 0 -6.741761e-06 -3.279319e-04 1.318342e+01 
-4.817537e-01 2.999728e+00 2.999728e+00 -1.000004e-04 2.109738e-05 0 6.571904e-06 -3.279319e-04 1.318342e+01 
-4.539905e-01 3.000249e+00 3.000249e+00 -1.000004e-04 -2.046836e-05 0 -6.505447e-06 -3.279319e-04 1.318342e+01 
-4.257793e-01 2.999774e+00 2.999774e+00 -1.000004e-04 1.983124e-05 0 6.382403e-06 -3.279319e-04 1.318342e+01 
-3.971479e-01 3.000205e+00 3.000205e+00 -1.000004e-04 -1.935732e-05 0 -6.357798e-06 -3.279319e-04 1.318342e+01 
-3.681246e-01 2.999814e+00 2.999814e+00 -1.000004e-04 1.886356e-05 0 6.273700e-06 -3.279319e-04 1.318342e+01 
-3.387379e-01 3.000167e+00 3.000167e+00 -1.000003e-04 -1.851725e-05 0 -6.284607e-06 -3.279319e-04 1.318342e+01 
-3.090170e-01 2.999851e+00 2.999851e+00 -1.000003e-04 1.814297e-05 0 6.234184e-06 -3.279319e-04 1.318342e+01 
-2.789911e-01 3.000132e+00 3.000132e+00 -1.000003e-04 -1.790466e-05 0 -6.276438e-06 -3.279319e-04 1.318342e+01 
-2.486899e-01 2.999885e+00 2.999885e+00 -1.000003e-04 1.763292e-05 0 6.256327e-06 -3.279319e-04 1.318342e+01 
-2.181432e-01 3.000100e+00 3.000100e+00 -1.000002e-04 -1.748881e-05 0 -6.327400e-06 -3.279319e-04 1.318342e+01 
-1.873813e-01 2.999916e+00 2.999916e+00 -1.000002e-04 1.730786e-05 0 6.335707e-06 -3.279319e-04 1.318342e+01 
-1.564345e-01 3.000070e+00 3.000070e+00 -1.000002e-04 -1.724863e-05 0 -6.434373e-06 -3.279319e-04 1.318342e+01 
-1.253332e-01 2.999945e+00 2.999945e+00 -1.000002e-04 1.715082e-05 0 6.470413e-06 -3.279319e-04 1.318342e+01 
-9.410831e-02 3.000041e+00 3.000041e+00 -1.000001e-04 -1.717074e-05 0 -6.596555e-06 -3.279319e-04 1.318342e+01 
-6.279052e-02 2.999973e+00 2.999973e+00 -1.000001e-04 1.715179e-05 0 6.660712e-06 -3.279319e-04 1.318342e+01 
-3.141076e-02 3.000014e+00 3.000014e+00 -1.000001e-04 -1.724819e-05 0 -6.815228e-06 -3.279319e-04 1.318342e+01 
-1.110223e-16 3.000000e+00 3.000000e+00 -1.000001e-04 1.730678e-05 0 6.908899e-06 -3.279319e-04 1.318342e+01 
3.141076e-02 2.999987e+00 2.999987e+00 -1.000000e-04 -1.747979e-05 0 -7.093693e-06 -3.279319e-04 1.318342e+01 
6.279052e-02 3.000026e+00 3.000026e+00 -1.000000e-04 1.761739e-05 0 7.219320e-06 -3.279319e-04 1.318342e+01 
9.410831e-02 2.999960e+00 2.999960e+00 -9.999999e-05 -1.786988e-05 0 -7.437374e-06 -3.279319e-04 1.318342e+01 
1.253332e-01 3.000053e+00 3.000053e+00 -9.999996e-05 1.809082e-05 0 7.598559e-06 -3.279319e-04 1.318342e+01 
1.564345e-01 2.999933e+00 2.999933e+00 -9.999994e-05 -1.842854e-05 0 -7.854080e-06 -3.279319e-04 1.318342e+01 
1.873813e-01 3.000081e+00 3.000081e+00 -9.999991e-05 1.874024e-05 0 8.055770e-06 -3.279319e-04 1.318342e+01 
2.181432e-01 2.999905e+00 2.999905e+00 -9.999989e-05 -1.917220e-05 0 -8.354438e-06 -3.279319e-04 1.318342e+01 
2.486899e-01 3.000109e+00 3.000109e+00 -9.999987e-05 1.958570e-05 0 8.603245e-06 -3.279319e-04 1.318342e+01 
2.789911e-01 2.999876e+00 2.999876e+00 -9.999984e-05 -2.012482e-05 0 -8.952582e-06 -3.279319e-04 1.318342e+01 
3.090170e-01 3.000139e+00 3.000139e+00 -9.999982e-05 2.065561e-05 0 9.257225e-06 -3.279319e-04 1.318342e+01 
3.387379e-01 2.999846e+00 2.999846e+00 -9.999980e-05 -2.131971e-05 0 -9.667127e-06 -3.279319e-04 1.318342e+01 
3.681246e-01 3.000171e+00 3.000171e+00 -9.999977e-05 2.198895e-05 0 1.003909e-05 -3.279319e-04 1.318342e+01 
3.971479e-01 2.999812e+00 2.999812e+00 -9.999975e-05 -2.280222e-05 0 -1.052261e-05 -3.279319e-04 1.318342e+01 
4.257793e-01 3.000206e+00 3.000206e+00 -9.999973e-05 2.363859e-05 0 1.097709e-05 -3.279319e-04 1.318342e+01 
4.539905e-01 2.999775e+00 2.999775e+00 -9.999970e-05 -2.463381e-05 0 -1.155155e-05 -3.279319e-04 1.318342e+01 
4.817537e-01 3.000245e+00 3.000245e+00 -9.999968e-05 2.567625e-05 0 1.210883e-05 -3.279319e-04 1.318342e+01 