TITLE = "2 species of PNP-Steric with high order term" 
VARIABLES = "X" "Conc1" "Conc2" "phi" "Current_x""I_ext" "I_PNP" "CURRENT" "ENERGY" "
ZONE T="0.001", I=101
-1 2.212346e-01 2.211397e-01 -9.985916e-05 4.438182e-03 0 3.926095e-02 3.239925e-10 1.176903e+01 
-9.995066e-01 2.519603e-01 2.518727e-01 -9.985989e-05 -3.745216e-04 0 2.345735e-02 3.239925e-10 1.176903e+01 
-9.980267e-01 3.367430e-01 3.366721e-01 -9.985465e-05 1.595017e-03 0 2.496763e-02 3.239925e-10 1.176903e+01 
-9.955620e-01 4.602616e-01 4.602127e-01 -9.985694e-05 4.945675e-06 0 7.358936e-03 3.239925e-10 1.176903e+01 
-9.921147e-01 6.081511e-01 6.081170e-01 -9.984934e-05 1.243417e-03 0 1.548848e-02 3.239925e-10 1.176903e+01 
-9.876883e-01 7.709660e-01 7.709498e-01 -9.985362e-05 -1.613477e-04 0 -4.921307e-03 3.239925e-10 1.176903e+01 
-9.822873e-01 9.417836e-01 9.417696e-01 -9.984597e-05 8.293825e-04 0 1.362780e-02 3.239925e-10 1.176903e+01 
-9.759168e-01 1.116856e+00 1.116856e+00 -9.985234e-05 -3.645461e-04 0 -1.225492e-02 3.239925e-10 1.176903e+01 
-9.685832e-01 1.292366e+00 1.292358e+00 -9.984493e-05 6.912325e-04 0 1.615512e-02 3.239925e-10 1.176903e+01 
-9.602937e-01 1.466524e+00 1.466531e+00 -9.985259e-05 -5.524944e-04 0 -1.776187e-02 3.239925e-10 1.176903e+01 
-9.510565e-01 1.636469e+00 1.636459e+00 -9.984501e-05 6.159409e-04 0 2.034133e-02 3.239925e-10 1.176903e+01 
-9.408808e-01 1.801109e+00 1.801121e+00 -9.985333e-05 -7.149534e-04 0 -2.285417e-02 3.239925e-10 1.176903e+01 
-9.297765e-01 1.957964e+00 1.957948e+00 -9.984548e-05 7.513502e-04 0 2.549033e-02 3.239925e-10 1.176903e+01 
-9.177546e-01 2.106322e+00 2.106343e+00 -9.985448e-05 -6.195487e-04 0 -2.774019e-02 3.239925e-10 1.176903e+01 
-9.048271e-01 2.244040e+00 2.244016e+00 -9.984582e-05 7.867718e-04 0 3.034985e-02 3.239925e-10 1.176903e+01 
-8.910065e-01 2.370797e+00 2.370824e+00 -9.985503e-05 -1.287250e-03 0 -3.418949e-02 3.239925e-10 1.176903e+01 
-8.763067e-01 2.484905e+00 2.484869e+00 -9.984631e-05 1.705759e-03 0 3.866946e-02 3.239925e-10 1.176903e+01 
-8.607420e-01 2.586554e+00 2.586610e+00 -9.985710e-05 -1.613437e-03 0 -4.204583e-02 3.239925e-10 1.176903e+01 
-8.443279e-01 2.674730e+00 2.674649e+00 -9.984355e-05 1.022656e-03 0 4.279440e-02 3.239925e-10 1.176903e+01 
-8.270806e-01 2.750160e+00 2.750268e+00 -9.986234e-05 -2.157028e-04 0 -4.060133e-02 3.239925e-10 1.176903e+01 
-8.090170e-01 2.812703e+00 2.812573e+00 -9.983891e-05 -5.018955e-04 0 3.618472e-02 3.239925e-10 1.176903e+01 
-7.901550e-01 2.863597e+00 2.863744e+00 -9.986754e-05 9.779867e-04 0 -3.068292e-02 3.239925e-10 1.176903e+01 
-7.705132e-01 2.903506e+00 2.903349e+00 -9.983551e-05 -1.198798e-03 0 2.509378e-02 3.239925e-10 1.176903e+01 
-7.501111e-01 2.934083e+00 2.934244e+00 -9.987085e-05 1.229359e-03 0 -2.004380e-02 3.239925e-10 1.176903e+01 
-7.289686e-01 2.956454e+00 2.956292e+00 -9.983387e-05 -1.148387e-03 0 1.581190e-02 3.239925e-10 1.176903e+01 
-7.071068e-01 2.972435e+00 2.972595e+00 -9.987267e-05 1.020808e-03 0 -1.242101e-02 3.239925e-10 1.176903e+01 
-6.845471e-01 2.983160e+00 2.983003e+00 -9.983320e-05 -8.869055e-04 0 9.780692e-03 3.239925e-10 1.176903e+01 
-6.613119e-01 2.990265e+00 2.990418e+00 -9.987381e-05 7.678991e-04 0 -7.743235e-03 3.239925e-10 1.176903e+01 
-6.374240e-01 2.994525e+00 2.994375e+00 -9.983285e-05 -6.705998e-04 0 6.176420e-03 3.239925e-10 1.176903e+01 
-6.129071e-01 2.997177e+00 2.997324e+00 -9.987473e-05 5.948496e-04 0 -4.957797e-03 3.239925e-10 1.176903e+01 
-5.877853e-01 2.998511e+00 2.998368e+00 -9.983256e-05 -5.364439e-04 0 4.003504e-03 3.239925e-10 1.176903e+01 
-5.620834e-01 2.999364e+00 2.999505e+00 -9.987558e-05 4.909420e-04 0 -3.241948e-03 3.239925e-10 1.176903e+01 
-5.358268e-01 2.999639e+00 2.999501e+00 -9.983227e-05 -4.539261e-04 0 2.630620e-03 3.239925e-10 1.176903e+01 
-5.090414e-01 2.999919e+00 3.000055e+00 -9.987635e-05 4.223936e-04 0 -2.131221e-03 3.239925e-10 1.176903e+01 
-4.817537e-01 2.999892e+00 2.999758e+00 -9.983200e-05 -3.939281e-04 0 1.724192e-03 3.239925e-10 1.176903e+01 
-4.539905e-01 3.000032e+00 3.000164e+00 -9.987705e-05 3.673443e-04 0 -1.387665e-03 3.239925e-10 1.176903e+01 
-4.257793e-01 2.999935e+00 2.999805e+00 -9.983176e-05 -3.416731e-04 0 1.112071e-03 3.239925e-10 1.176903e+01 
-3.971479e-01 3.000052e+00 3.000180e+00 -9.987765e-05 3.165617e-04 0 -8.841607e-04 3.239925e-10 1.176903e+01 
-3.681246e-01 2.999940e+00 2.999813e+00 -9.983155e-05 -2.916472e-04 0 6.988492e-04 3.239925e-10 1.176903e+01 
-3.387379e-01 3.000055e+00 3.000181e+00 -9.987815e-05 2.669337e-04 0 -5.465636e-04 3.239925e-10 1.176903e+01 
-3.090170e-01 2.999940e+00 2.999815e+00 -9.983138e-05 -2.422713e-04 0 4.242229e-04 3.239925e-10 1.176903e+01 
-2.789911e-01 3.000057e+00 3.000181e+00 -9.987857e-05 2.177425e-04 0 -3.247182e-04 3.239925e-10 1.176903e+01 
-2.486899e-01 2.999939e+00 2.999816e+00 -9.983125e-05 -1.932882e-04 0 2.458298e-04 3.239925e-10 1.176903e+01 
-2.181432e-01 3.000058e+00 3.000180e+00 -9.987891e-05 1.689765e-04 0 -1.823528e-04 3.239925e-10 1.176903e+01 
-1.873813e-01 2.999938e+00 2.999817e+00 -9.983115e-05 -1.447067e-04 0 1.332629e-04 3.239925e-10 1.176903e+01 
-1.564345e-01 3.000059e+00 3.000180e+00 -9.987915e-05 1.205112e-04 0 -9.479466e-05 3.239925e-10 1.176903e+01 
-1.253332e-01 2.999938e+00 2.999817e+00 -9.983107e-05 -9.635513e-05 0 6.569487e-05 3.239925e-10 1.176903e+01 
-9.410831e-02 3.000059e+00 3.000179e+00 -9.987931e-05 7.225286e-05 0 -4.311634e-05 3.239925e-10 1.176903e+01 
-6.279052e-02 2.999937e+00 2.999818e+00 -9.983103e-05 -4.815257e-05 0 2.605599e-05 3.239925e-10 1.176903e+01 
-3.141076e-02 3.000059e+00 3.000179e+00 -9.987939e-05 2.406871e-05 0 -1.221196e-05 3.239925e-10 1.176903e+01 
-1.110223e-16 2.999937e+00 2.999818e+00 -9.983102e-05 8.751643e-09 0 1.096994e-07 3.239925e-10 1.176903e+01 
3.141076e-02 3.000059e+00 3.000179e+00 -9.987939e-05 -2.408835e-05 0 1.197314e-05 3.239925e-10 1.176903e+01 
6.279052e-02 2.999937e+00 2.999818e+00 -9.983103e-05 4.817147e-05 0 -2.582666e-05 3.239925e-10 1.176903e+01 
9.410831e-02 3.000059e+00 3.000179e+00 -9.987931e-05 -7.226361e-05 0 4.296214e-05 3.239925e-10 1.176903e+01 
1.253332e-01 2.999938e+00 2.999817e+00 -9.983107e-05 9.636284e-05 0 -6.557018e-05 3.239925e-10 1.176903e+01 
1.564345e-01 3.000059e+00 3.000180e+00 -9.987915e-05 -1.205163e-04 0 9.470265e-05 3.239925e-10 1.176903e+01 
1.873813e-01 2.999938e+00 2.999817e+00 -9.983114e-05 1.446885e-04 0 -1.333923e-04 3.239925e-10 1.176903e+01 
2.181432e-01 3.000058e+00 3.000180e+00 -9.987891e-05 -1.689261e-04 0 1.827913e-04 3.239925e-10 1.176903e+01 
2.486899e-01 2.999939e+00 2.999816e+00 -9.983125e-05 1.932253e-04 0 -2.463887e-04 3.239925e-10 1.176903e+01 
2.789911e-01 3.000057e+00 3.000181e+00 -9.987857e-05 -2.176926e-04 0 3.251548e-04 3.239925e-10 1.176903e+01 
3.090170e-01 2.999940e+00 2.999815e+00 -9.983138e-05 2.422345e-04 0 -4.245351e-04 3.239925e-10 1.176903e+01 
3.387379e-01 3.000055e+00 3.000181e+00 -9.987815e-05 -2.668945e-04 0 5.468937e-04 3.239925e-10 1.176903e+01 
3.681246e-01 2.999940e+00 2.999813e+00 -9.983155e-05 2.916032e-04 0 -6.992255e-04 3.239925e-10 1.176903e+01 
3.971479e-01 3.000052e+00 3.000180e+00 -9.987765e-05 -3.165149e-04 0 8.845645e-04 3.239925e-10 1.176903e+01 
4.257793e-01 2.999935e+00 2.999805e+00 -9.983176e-05 3.416285e-04 0 -1.112447e-03 3.239925e-10 1.176903e+01 
4.539905e-01 3.000032e+00 3.000164e+00 -9.987704e-05 -3.673265e-04 0 1.387778e-03 3.239925e-10 1.176903e+01 
4.817537e-01 2.999892e+00 2.999758e+00 -9.983200e-05 3.939487e-04 0 -1.723938e-03 3.239925e-10 1.176903e+01 
5.090414e-01 2.999919e+00 3.000055e+00 -9.987635e-05 -4.224212e-04 0 2.130891e-03 3.239925e-10 1.176903e+01 
5.358268e-01 2.999639e+00 2.999501e+00 -9.983227e-05 4.539439e-04 0 -2.630379e-03 3.239925e-10 1.176903e+01 
5.620834e-01 2.999364e+00 2.999505e+00 -9.987558e-05 -4.909643e-04 0 3.241665e-03 3.239925e-10 1.176903e+01 
5.877853e-01 2.998511e+00 2.998368e+00 -9.983256e-05 5.364757e-04 0 -4.003126e-03 3.239925e-10 1.176903e+01 
6.129071e-01 2.997177e+00 2.997324e+00 -9.987473e-05 -5.948905e-04 0 4.957327e-03 3.239925e-10 1.176903e+01 
6.374240e-01 2.994525e+00 2.994375e+00 -9.983285e-05 6.706467e-04 0 -6.175901e-03 3.239925e-10 1.176903e+01 
6.613119e-01 2.990265e+00 2.990418e+00 -9.987381e-05 -7.679404e-04 0 7.742774e-03 3.239925e-10 1.176903e+01 
6.845471e-01 2.983160e+00 2.983003e+00 -9.983320e-05 8.869443e-04 0 -9.780263e-03 3.239925e-10 1.176903e+01 
7.071068e-01 2.972435e+00 2.972595e+00 -9.987267e-05 -1.020856e-03 0 1.242051e-02 3.239925e-10 1.176903e+01 
7.289686e-01 2.956454e+00 2.956292e+00 -9.983387e-05 1.148453e-03 0 -1.581129e-02 3.239925e-10 1.176903e+01 
7.501111e-01 2.934083e+00 2.934244e+00 -9.987085e-05 -1.229435e-03 0 2.004323e-02 3.239925e-10 1.176903e+01 
7.705132e-01 2.903506e+00 2.903349e+00 -9.983551e-05 1.198841e-03 0 -2.509363e-02 3.239925e-10 1.176903e+01 
7.901550e-01 2.863597e+00 2.863744e+00 -9.986754e-05 -9.779563e-04 0 3.068329e-02 3.239925e-10 1.176903e+01 
8.090170e-01 2.812703e+00 2.812573e+00 -9.983891e-05 5.018279e-04 0 -3.618515e-02 3.239925e-10 1.176903e+01 
8.270806e-01 2.750160e+00 2.750268e+00 -9.986234e-05 2.157485e-04 0 4.060165e-02 3.239925e-10 1.176903e+01 
8.443279e-01 2.674730e+00 2.674649e+00 -9.984355e-05 -1.022736e-03 0 -4.279493e-02 3.239925e-10 1.176903e+01 
8.607420e-01 2.586554e+00 2.586610e+00 -9.985710e-05 1.613588e-03 0 4.204638e-02 3.239925e-10 1.176903e+01 
8.763067e-01 2.484905e+00 2.484869e+00 -9.984631e-05 -1.705837e-03 0 -3.866965e-02 3.239925e-10 1.176903e+01 
8.910065e-01 2.370797e+00 2.370824e+00 -9.985503e-05 1.287295e-03 0 3.418977e-02 3.239925e-10 1.176903e+01 
9.048271e-01 2.244040e+00 2.244016e+00 -9.984582e-05 -7.869730e-04 0 -3.035042e-02 3.239925e-10 1.176903e+01 
9.177546e-01 2.106322e+00 2.106343e+00 -9.985448e-05 6.197549e-04 0 2.774055e-02 3.239925e-10 1.176903e+01 
9.297765e-01 1.957964e+00 1.957948e+00 -9.984549e-05 -7.514334e-04 0 -2.549039e-02 3.239925e-10 1.176903e+01 
9.408808e-01 1.801109e+00 1.801121e+00 -9.985333e-05 7.149776e-04 0 2.285413e-02 3.239925e-10 1.176903e+01 
9.510565e-01 1.636469e+00 1.636459e+00 -9.984501e-05 -6.159165e-04 0 -2.034119e-02 3.239925e-10 1.176903e+01 
9.602937e-01 1.466524e+00 1.466531e+00 -9.985259e-05 5.523855e-04 0 1.776164e-02 3.239925e-10 1.176903e+01 
9.685832e-01 1.292366e+00 1.292358e+00 -9.984493e-05 -6.911285e-04 0 -1.615499e-02 3.239925e-10 1.176903e+01 
9.759168e-01 1.116856e+00 1.116856e+00 -9.985234e-05 3.645924e-04 0 1.225502e-02 3.239925e-10 1.176903e+01 
9.822873e-01 9.417836e-01 9.417696e-01 -9.984597e-05 -8.295308e-04 0 -1.362797e-02 3.239925e-10 1.176903e+01 
9.876883e-01 7.709660e-01 7.709498e-01 -9.985362e-05 1.613318e-04 0 4.921217e-03 3.239925e-10 1.176903e+01 
9.921147e-01 6.081511e-01 6.081170e-01 -9.984934e-05 -1.243306e-03 0 -1.548839e-02 3.239925e-10 1.176903e+01 
9.955620e-01 4.602616e-01 4.602127e-01 -9.985694e-05 -4.865260e-06 0 -7.358880e-03 3.239925e-10 1.176903e+01 
9.980267e-01 3.367430e-01 3.366721e-01 -9.985465e-05 -1.594942e-03 0 -2.496756e-02 3.239925e-10 1.176903e+01 
9.995066e-01 2.519603e-01 2.518727e-01 -9.985989e-05 3.745480e-04 0 -2.345733e-02 3.239925e-10 1.176903e+01 
1 2.212346e-01 2.211397e-01 -9.985916e-05 -4.438122e-03 0 -3.926088e-02 3.239925e-10 1.176903e+01 
ZONE T="0.002", I=101
-1 2.212366e-01 2.211418e-01 -9.979778e-05 3.991777e-03 0 2.839682e-02 -2.639456e-10 1.119372e+01 
-9.995066e-01 2.431045e-01 2.430150e-01 -9.979789e-05 -5.502709e-04 0 1.710346e-02 -2.639456e-10 1.119372e+01 
-9.980267e-01 3.048068e-01 3.047299e-01 -9.979254e-05 1.300135e-03 0 1.909676e-02 -2.639456e-10 1.119372e+01 
-9.955620e-01 3.974403e-01 3.973814e-01 -9.979235e-05 -1.766947e-04 0 7.978052e-03 -2.639456e-10 1.119372e+01 
-9.921147e-01 5.116985e-01 5.116541e-01 -9.978417e-05 1.024646e-03 0 1.222992e-02 -2.639456e-10 1.119372e+01 
-9.876883e-01 6.403465e-01 6.403189e-01 -9.978513e-05 -1.762814e-04 0 -3.287205e-04 -2.639456e-10 1.119372e+01 
-9.822873e-01 7.781437e-01 7.781227e-01 -9.977713e-05 7.996147e-04 0 9.405737e-03 -2.639456e-10 1.119372e+01 
-9.759168e-01 9.215759e-01 9.215679e-01 -9.978039e-05 -2.835240e-04 0 -5.640243e-03 -2.639456e-10 1.119372e+01 
-9.685832e-01 1.067941e+00 1.067931e+00 -9.977348e-05 6.201593e-04 0 9.564480e-03 -2.639456e-10 1.119372e+01 
-9.602937e-01 1.215374e+00 1.215376e+00 -9.977865e-05 -3.904831e-04 0 -9.243158e-03 -2.639456e-10 1.119372e+01 
-9.510565e-01 1.362164e+00 1.362156e+00 -9.977242e-05 5.231796e-04 0 1.124241e-02 -2.639456e-10 1.119372e+01 
-9.408808e-01 1.507078e+00 1.507085e+00 -9.977864e-05 -4.535674e-04 0 -1.214902e-02 -2.639456e-10 1.119372e+01 
-9.297765e-01 1.648802e+00 1.648793e+00 -9.977252e-05 5.075111e-04 0 1.361931e-02 -2.639456e-10 1.119372e+01 
-9.177546e-01 1.786380e+00 1.786391e+00 -9.977923e-05 -4.927834e-04 0 -1.489106e-02 -2.639456e-10 1.119372e+01 
-9.048271e-01 1.918710e+00 1.918698e+00 -9.977289e-05 5.262108e-04 0 1.627756e-02 -2.639456e-10 1.119372e+01 
-8.910065e-01 2.045012e+00 2.045027e+00 -9.977993e-05 -5.620904e-04 0 -1.771518e-02 -2.639456e-10 1.119372e+01 
-8.763067e-01 2.164374e+00 2.164356e+00 -9.977319e-05 5.859155e-04 0 1.914035e-02 -2.639456e-10 1.119372e+01 
-8.607420e-01 2.276195e+00 2.276216e+00 -9.978085e-05 -5.908123e-04 0 -2.050707e-02 -2.639456e-10 1.119372e+01 
-8.443279e-01 2.379797e+00 2.379771e+00 -9.977330e-05 6.541755e-04 0 2.195946e-02 -2.639456e-10 1.119372e+01 
-8.270806e-01 2.474800e+00 2.474829e+00 -9.978172e-05 -7.800814e-04 0 -2.365306e-02 -2.639456e-10 1.119372e+01 
-8.090170e-01 2.560827e+00 2.560790e+00 -9.977315e-05 9.038326e-04 0 2.545434e-02 -2.639456e-10 1.119372e+01 
-7.901550e-01 2.637759e+00 2.637806e+00 -9.978352e-05 -9.247872e-04 0 -2.693605e-02 -2.639456e-10 1.119372e+01 
-7.705132e-01 2.705596e+00 2.705535e+00 -9.977119e-05 8.097741e-04 0 2.761495e-02 -2.639456e-10 1.119372e+01 
-7.501111e-01 2.764470e+00 2.764546e+00 -9.978731e-05 -5.876286e-04 0 -2.722635e-02 -2.639456e-10 1.119372e+01 
-7.289686e-01 2.814817e+00 2.814727e+00 -9.976760e-05 3.296632e-04 0 2.580713e-02 -2.639456e-10 1.119372e+01 
-7.071068e-01 2.856975e+00 2.857079e+00 -9.979177e-05 -9.502487e-05 0 -2.362069e-02 -2.639456e-10 1.119372e+01 
-6.845471e-01 2.891777e+00 2.891664e+00 -9.976419e-05 -7.902870e-05 0 2.101633e-02 -2.639456e-10 1.119372e+01 
-6.613119e-01 2.919707e+00 2.919827e+00 -9.979532e-05 1.864130e-04 0 -1.831286e-02 -2.639456e-10 1.119372e+01 
-6.374240e-01 2.941856e+00 2.941732e+00 -9.976190e-05 -2.352932e-04 0 1.573926e-02 -2.639456e-10 1.119372e+01 
-6.129071e-01 2.958764e+00 2.958891e+00 -9.979767e-05 2.435278e-04 0 -1.342547e-02 -2.639456e-10 1.119372e+01 
-5.877853e-01 2.971594e+00 2.971466e+00 -9.976062e-05 -2.262310e-04 0 1.142539e-02 -2.639456e-10 1.119372e+01 
-5.620834e-01 2.980823e+00 2.980950e+00 -9.979916e-05 1.974266e-04 0 -9.737429e-03 -2.639456e-10 1.119372e+01 
-5.358268e-01 2.987517e+00 2.987391e+00 -9.975992e-05 -1.650308e-04 0 8.332161e-03 -2.639456e-10 1.119372e+01 
-5.090414e-01 2.991994e+00 2.992119e+00 -9.980020e-05 1.351161e-04 0 -7.165712e-03 -2.639456e-10 1.119372e+01 
-4.817537e-01 2.995120e+00 2.994996e+00 -9.975944e-05 -1.093475e-04 0 6.195461e-03 -2.639456e-10 1.119372e+01 
-4.539905e-01 2.997014e+00 2.997137e+00 -9.980105e-05 8.906235e-05 0 -5.381313e-03 -2.639456e-10 1.119372e+01 
-4.257793e-01 2.998326e+00 2.998205e+00 -9.975905e-05 -7.322570e-05 0 4.691577e-03 -2.639456e-10 1.119372e+01 
-3.971479e-01 2.998999e+00 2.999119e+00 -9.980178e-05 6.156394e-05 0 -4.099260e-03 -2.639456e-10 1.119372e+01 
-3.681246e-01 2.999511e+00 2.999392e+00 -9.975870e-05 -5.263029e-05 0 3.584287e-03 -2.639456e-10 1.119372e+01 
-3.387379e-01 2.999685e+00 2.999804e+00 -9.980244e-05 4.603578e-05 0 -3.130095e-03 -2.639456e-10 1.119372e+01 
-3.090170e-01 2.999893e+00 2.999775e+00 -9.975838e-05 -4.059202e-05 0 2.725530e-03 -2.639456e-10 1.119372e+01 
-2.789911e-01 2.999892e+00 3.000010e+00 -9.980300e-05 3.618046e-05 0 -2.360456e-03 -2.639456e-10 1.119372e+01 
-2.486899e-01 3.000000e+00 2.999884e+00 -9.975811e-05 -3.204752e-05 0 2.028295e-03 -2.639456e-10 1.119372e+01 
-2.181432e-01 2.999947e+00 3.000063e+00 -9.980345e-05 2.823044e-05 0 -1.722959e-03 -2.639456e-10 1.119372e+01 
-1.873813e-01 3.000026e+00 2.999911e+00 -9.975790e-05 -2.431926e-05 0 1.439896e-03 -2.639456e-10 1.119372e+01 
-1.564345e-01 2.999960e+00 3.000076e+00 -9.980380e-05 2.048913e-05 0 -1.174409e-03 -2.639456e-10 1.119372e+01 
-1.253332e-01 3.000032e+00 2.999917e+00 -9.975774e-05 -1.649098e-05 0 9.233392e-04 -2.639456e-10 1.119372e+01 
-9.410831e-02 2.999963e+00 3.000078e+00 -9.980403e-05 1.246756e-05 0 -6.832883e-04 -2.639456e-10 1.119372e+01 
-6.279052e-02 3.000033e+00 2.999918e+00 -9.975764e-05 -8.322060e-06 0 4.513302e-04 -2.639456e-10 1.119372e+01 
-3.141076e-02 2.999964e+00 3.000078e+00 -9.980414e-05 4.167816e-06 0 -2.244975e-04 -2.639456e-10 1.119372e+01 
-1.110223e-16 3.000033e+00 2.999918e+00 -9.975761e-05 3.669486e-08 0 3.371205e-07 -2.639456e-10 1.119372e+01 
3.141076e-02 2.999964e+00 3.000078e+00 -9.980414e-05 -4.241069e-06 0 2.238252e-04 -2.639456e-10 1.119372e+01 
6.279052e-02 3.000033e+00 2.999918e+00 -9.975764e-05 8.384927e-06 0 -4.507643e-04 -2.639456e-10 1.119372e+01 
9.410831e-02 2.999963e+00 3.000078e+00 -9.980403e-05 -1.250434e-05 0 6.829677e-04 -2.639456e-10 1.119372e+01 
1.253332e-01 3.000032e+00 2.999917e+00 -9.975774e-05 1.651027e-05 0 -9.231910e-04 -2.639456e-10 1.119372e+01 
1.564345e-01 2.999960e+00 3.000076e+00 -9.980380e-05 -2.050368e-05 0 1.174312e-03 -2.639456e-10 1.119372e+01 
1.873813e-01 3.000026e+00 2.999911e+00 -9.975790e-05 2.433188e-05 0 -1.439815e-03 -2.639456e-10 1.119372e+01 
2.181432e-01 2.999947e+00 3.000063e+00 -9.980345e-05 -2.823298e-05 0 1.722987e-03 -2.639456e-10 1.119372e+01 
2.486899e-01 3.000000e+00 2.999884e+00 -9.975811e-05 3.202174e-05 0 -2.028586e-03 -2.639456e-10 1.119372e+01 
2.789911e-01 2.999892e+00 3.000010e+00 -9.980300e-05 -3.615587e-05 0 2.360733e-03 -2.639456e-10 1.119372e+01 
3.090170e-01 2.999893e+00 2.999775e+00 -9.975839e-05 4.060925e-05 0 -2.725417e-03 -2.639456e-10 1.119372e+01 
3.387379e-01 2.999685e+00 2.999804e+00 -9.980244e-05 -4.608331e-05 0 3.129684e-03 -2.639456e-10 1.119372e+01 
3.681246e-01 2.999511e+00 2.999392e+00 -9.975870e-05 5.268194e-05 0 -3.583842e-03 -2.639456e-10 1.119372e+01 
3.971479e-01 2.998999e+00 2.999119e+00 -9.980179e-05 -6.159359e-05 0 4.099032e-03 -2.639456e-10 1.119372e+01 
4.257793e-01 2.998326e+00 2.998205e+00 -9.975905e-05 7.322867e-05 0 -4.691601e-03 -2.639456e-10 1.119372e+01 
4.539905e-01 2.997014e+00 2.997137e+00 -9.980105e-05 -8.908696e-05 0 5.381123e-03 -2.639456e-10 1.119372e+01 
4.817537e-01 2.995120e+00 2.994996e+00 -9.975944e-05 1.094423e-04 0 -6.194608e-03 -2.639456e-10 1.119372e+01 
5.090414e-01 2.991994e+00 2.992119e+00 -9.980020e-05 -1.352515e-04 0 7.164513e-03 -2.639456e-10 1.119372e+01 
5.358268e-01 2.987517e+00 2.987391e+00 -9.975991e-05 1.651321e-04 0 -8.331332e-03 -2.639456e-10 1.119372e+01 
5.620834e-01 2.980823e+00 2.980950e+00 -9.979916e-05 -1.974671e-04 0 9.737209e-03 -2.639456e-10 1.119372e+01 
5.877853e-01 2.971594e+00 2.971466e+00 -9.976062e-05 2.262363e-04 0 -1.142549e-02 -2.639456e-10 1.119372e+01 
6.129071e-01 2.958764e+00 2.958891e+00 -9.979767e-05 -2.435414e-04 0 1.342551e-02 -2.639456e-10 1.119372e+01 
6.374240e-01 2.941856e+00 2.941732e+00 -9.976190e-05 2.353049e-04 0 -1.573942e-02 -2.639456e-10 1.119372e+01 
6.613119e-01 2.919707e+00 2.919827e+00 -9.979532e-05 -1.863528e-04 0 1.831364e-02 -2.639456e-10 1.119372e+01 
6.845471e-01 2.891777e+00 2.891664e+00 -9.976419e-05 7.889658e-05 0 -2.101747e-02 -2.639456e-10 1.119372e+01 
7.071068e-01 2.856975e+00 2.857079e+00 -9.979177e-05 9.514862e-05 0 2.362156e-02 -2.639456e-10 1.119372e+01 
7.289686e-01 2.814817e+00 2.814727e+00 -9.976761e-05 -3.297099e-04 0 -2.580735e-02 -2.639456e-10 1.119372e+01 
7.501111e-01 2.764470e+00 2.764546e+00 -9.978731e-05 5.875703e-04 0 2.722605e-02 -2.639456e-10 1.119372e+01 
7.705132e-01 2.705596e+00 2.705535e+00 -9.977118e-05 -8.096894e-04 0 -2.761475e-02 -2.639456e-10 1.119372e+01 
7.901550e-01 2.637759e+00 2.637806e+00 -9.978352e-05 9.247665e-04 0 2.693615e-02 -2.639456e-10 1.119372e+01 
8.090170e-01 2.560827e+00 2.560790e+00 -9.977315e-05 -9.038295e-04 0 -2.545450e-02 -2.639456e-10 1.119372e+01 
8.270806e-01 2.474800e+00 2.474829e+00 -9.978172e-05 7.801021e-04 0 2.365334e-02 -2.639456e-10 1.119372e+01 
8.443279e-01 2.379797e+00 2.379771e+00 -9.977330e-05 -6.542520e-04 0 -2.195985e-02 -2.639456e-10 1.119372e+01 
8.607420e-01 2.276195e+00 2.276216e+00 -9.978085e-05 5.909137e-04 0 2.050747e-02 -2.639456e-10 1.119372e+01 
8.763067e-01 2.164374e+00 2.164356e+00 -9.977319e-05 -5.860226e-04 0 -1.914067e-02 -2.639456e-10 1.119372e+01 
8.910065e-01 2.045012e+00 2.045027e+00 -9.977993e-05 5.621435e-04 0 1.771531e-02 -2.639456e-10 1.119372e+01 
9.048271e-01 1.918710e+00 1.918698e+00 -9.977289e-05 -5.261935e-04 0 -1.627754e-02 -2.639456e-10 1.119372e+01 
9.177546e-01 1.786380e+00 1.786391e+00 -9.977923e-05 4.927332e-04 0 1.489100e-02 -2.639456e-10 1.119372e+01 
9.297765e-01 1.648802e+00 1.648793e+00 -9.977252e-05 -5.074730e-04 0 -1.361928e-02 -2.639456e-10 1.119372e+01 
9.408808e-01 1.507078e+00 1.507085e+00 -9.977864e-05 4.535025e-04 0 1.214892e-02 -2.639456e-10 1.119372e+01 
9.510565e-01 1.362164e+00 1.362156e+00 -9.977242e-05 -5.230361e-04 0 -1.124220e-02 -2.639456e-10 1.119372e+01 
9.602937e-01 1.215374e+00 1.215376e+00 -9.977865e-05 3.903192e-04 0 9.242978e-03 -2.639456e-10 1.119372e+01 
9.685832e-01 1.067941e+00 1.067931e+00 -9.977348e-05 -6.200639e-04 0 -9.564413e-03 -2.639456e-10 1.119372e+01 
9.759168e-01 9.215759e-01 9.215679e-01 -9.978039e-05 2.835126e-04 0 5.640297e-03 -2.639456e-10 1.119372e+01 
9.822873e-01 7.781437e-01 7.781227e-01 -9.977713e-05 -7.996794e-04 0 -9.405854e-03 -2.639456e-10 1.119372e+01 
9.876883e-01 6.403465e-01 6.403189e-01 -9.978513e-05 1.763277e-04 0 3.287998e-04 -2.639456e-10 1.119372e+01 
9.921147e-01 5.116985e-01 5.116541e-01 -9.978417e-05 -1.024661e-03 0 -1.222995e-02 -2.639456e-10 1.119372e+01 
9.955620e-01 3.974403e-01 3.973814e-01 -9.979235e-05 1.767097e-04 0 -7.978013e-03 -2.639456e-10 1.119372e+01 
9.980267e-01 3.048068e-01 3.047299e-01 -9.979254e-05 -1.300190e-03 0 -1.909682e-02 -2.639456e-10 1.119372e+01 
9.995066e-01 2.431045e-01 2.430150e-01 -9.979789e-05 5.502811e-04 0 -1.710344e-02 -2.639456e-10 1.119372e+01 
1 2.212366e-01 2.211418e-01 -9.979778e-05 -3.991757e-03 0 -2.839681e-02 -2.639456e-10 1.119372e+01 
ZONE T="0.003", I=101
-1 2.212368e-01 2.211420e-01 -9.975141e-05 3.208123e-03 0 2.274258e-02 -2.693383e-10 1.075309e+01 
-9.995066e-01 2.391424e-01 2.390520e-01 -9.975102e-05 -4.388137e-04 0 1.441990e-02 -2.693383e-10 1.075309e+01 
-9.980267e-01 2.901893e-01 2.901096e-01 -9.974566e-05 1.047383e-03 0 1.591042e-02 -2.693383e-10 1.075309e+01 
-9.955620e-01 3.680092e-01 3.679452e-01 -9.974348e-05 -1.293492e-04 0 8.033156e-03 -2.693383e-10 1.075309e+01 
-9.921147e-01 4.655167e-01 4.654666e-01 -9.973489e-05 8.397938e-04 0 1.037204e-02 -2.693383e-10 1.075309e+01 
-9.876883e-01 5.767721e-01 5.767377e-01 -9.973305e-05 -1.071635e-04 0 1.649497e-03 -2.693383e-10 1.075309e+01 
-9.822873e-01 6.973059e-01 6.972798e-01 -9.972463e-05 6.758834e-04 0 7.382549e-03 -2.693383e-10 1.075309e+01 
-9.759168e-01 8.239353e-01 8.239215e-01 -9.972500e-05 -1.763546e-04 0 -2.593628e-03 -2.693383e-10 1.075309e+01 
-9.685832e-01 9.542946e-01 9.542821e-01 -9.971817e-05 5.316519e-04 0 6.680614e-03 -2.693383e-10 1.075309e+01 
-9.602937e-01 1.086649e+00 1.086646e+00 -9.972087e-05 -2.613279e-04 0 -5.371489e-03 -2.693383e-10 1.075309e+01 
-9.510565e-01 1.219571e+00 1.219564e+00 -9.971542e-05 4.338989e-04 0 7.286948e-03 -2.693383e-10 1.075309e+01 
-9.408808e-01 1.351936e+00 1.351940e+00 -9.971962e-05 -3.242028e-04 0 -7.433405e-03 -2.693383e-10 1.075309e+01 
-9.297765e-01 1.482719e+00 1.482712e+00 -9.971481e-05 3.901770e-04 0 8.551371e-03 -2.693383e-10 1.075309e+01 
-9.177546e-01 1.611060e+00 1.611067e+00 -9.971972e-05 -3.610635e-04 0 -9.221536e-03 -2.693383e-10 1.075309e+01 
-9.048271e-01 1.736130e+00 1.736122e+00 -9.971501e-05 3.892547e-04 0 1.012818e-02 -2.693383e-10 1.075309e+01 
-8.910065e-01 1.857216e+00 1.857225e+00 -9.972024e-05 -3.897840e-04 0 -1.096263e-02 -2.693383e-10 1.075309e+01 
-8.763067e-01 1.973623e+00 1.973612e+00 -9.971534e-05 4.073400e-04 0 1.184070e-02 -2.693383e-10 1.075309e+01 
-8.607420e-01 2.084752e+00 2.084765e+00 -9.972087e-05 -4.258639e-04 0 -1.273792e-02 -2.693383e-10 1.075309e+01 
-8.443279e-01 2.190048e+00 2.190033e+00 -9.971561e-05 4.501679e-04 0 1.365001e-02 -2.693383e-10 1.075309e+01 
-8.270806e-01 2.289035e+00 2.289053e+00 -9.972163e-05 -4.619143e-04 0 -1.453924e-02 -2.693383e-10 1.075309e+01 
-8.090170e-01 2.381326e+00 2.381305e+00 -9.971564e-05 4.799090e-04 0 1.540832e-02 -2.693383e-10 1.075309e+01 
-7.901550e-01 2.466592e+00 2.466616e+00 -9.972253e-05 -5.175181e-04 0 -1.631687e-02 -2.693383e-10 1.075309e+01 
-7.705132e-01 2.544653e+00 2.544625e+00 -9.971550e-05 5.777583e-04 0 1.729199e-02 -2.693383e-10 1.075309e+01 
-7.501111e-01 2.615350e+00 2.615383e+00 -9.972375e-05 -6.282420e-04 0 -1.824912e-02 -2.693383e-10 1.075309e+01 
-7.289686e-01 2.678743e+00 2.678702e+00 -9.971452e-05 6.392063e-04 0 1.899915e-02 -2.693383e-10 1.075309e+01 
-7.071068e-01 2.734844e+00 2.734894e+00 -9.972616e-05 -5.919206e-04 0 -1.933803e-02 -2.693383e-10 1.075309e+01 
-6.845471e-01 2.783985e+00 2.783925e+00 -9.971217e-05 4.973545e-04 0 1.914158e-02 -2.693383e-10 1.075309e+01 
-6.613119e-01 2.826313e+00 2.826383e+00 -9.972960e-05 -3.763560e-04 0 -1.840423e-02 -2.693383e-10 1.075309e+01 
-6.374240e-01 2.862430e+00 2.862351e+00 -9.970924e-05 2.554615e-04 0 1.722052e-02 -2.693383e-10 1.075309e+01 
-6.129071e-01 2.892577e+00 2.892663e+00 -9.973300e-05 -1.513217e-04 0 -1.574067e-02 -2.693383e-10 1.075309e+01 
-5.877853e-01 2.917562e+00 2.917470e+00 -9.970673e-05 7.400897e-05 0 1.412307e-02 -2.693383e-10 1.075309e+01 
-5.620834e-01 2.937672e+00 2.937768e+00 -9.973564e-05 -2.292930e-05 0 -1.249801e-02 -2.693383e-10 1.075309e+01 
-5.358268e-01 2.953822e+00 2.953723e+00 -9.970503e-05 -5.091905e-06 0 1.095631e-02 -2.693383e-10 1.075309e+01 
-5.090414e-01 2.966284e+00 2.966385e+00 -9.973745e-05 1.707249e-05 0 -9.548926e-03 -2.693383e-10 1.075309e+01 
-4.817537e-01 2.975973e+00 2.975871e+00 -9.970401e-05 -1.784788e-05 0 8.299477e-03 -2.693383e-10 1.075309e+01 
-4.539905e-01 2.983086e+00 2.983189e+00 -9.973865e-05 1.290995e-05 0 -7.209291e-03 -2.693383e-10 1.075309e+01 
-4.257793e-01 2.988456e+00 2.988354e+00 -9.970339e-05 -5.101302e-06 0 6.266717e-03 -2.693383e-10 1.075309e+01 
-3.971479e-01 2.992161e+00 2.992263e+00 -9.973951e-05 -2.669367e-06 0 -5.453134e-03 -2.693383e-10 1.075309e+01 
-3.681246e-01 2.994907e+00 2.994806e+00 -9.970298e-05 9.689042e-06 0 4.749285e-03 -2.693383e-10 1.075309e+01 
-3.387379e-01 2.996645e+00 2.996746e+00 -9.974017e-05 -1.483872e-05 0 -4.135577e-03 -2.693383e-10 1.075309e+01 
-3.090170e-01 2.997952e+00 2.997851e+00 -9.970267e-05 1.841675e-05 0 3.595091e-03 -2.693383e-10 1.075309e+01 
-2.789911e-01 2.998666e+00 2.998765e+00 -9.974071e-05 -2.005256e-05 0 -3.112261e-03 -2.693383e-10 1.075309e+01 
-2.486899e-01 2.999260e+00 2.999161e+00 -9.970241e-05 2.038390e-05 0 2.675535e-03 -2.693383e-10 1.075309e+01 
-2.181432e-01 2.999495e+00 2.999594e+00 -9.974115e-05 -1.943809e-05 0 -2.275535e-03 -2.693383e-10 1.075309e+01 
-1.873813e-01 2.999772e+00 2.999673e+00 -9.970220e-05 1.780430e-05 0 1.904885e-03 -2.693383e-10 1.075309e+01 
-1.564345e-01 2.999804e+00 2.999903e+00 -9.974150e-05 -1.541417e-05 0 -1.556495e-03 -2.693383e-10 1.075309e+01 
-1.253332e-01 2.999955e+00 2.999856e+00 -9.970204e-05 1.269802e-05 0 1.225673e-03 -2.693383e-10 1.075309e+01 
-9.410831e-02 2.999910e+00 3.000008e+00 -9.974172e-05 -9.676856e-06 0 -9.082918e-04 -2.693383e-10 1.075309e+01 
-6.279052e-02 3.000013e+00 2.999915e+00 -9.970194e-05 6.521554e-06 0 6.002219e-04 -2.693383e-10 1.075309e+01 
-3.141076e-02 2.999940e+00 3.000038e+00 -9.974184e-05 -3.255138e-06 0 -2.984027e-04 -2.693383e-10 1.075309e+01 
-1.110223e-16 3.000026e+00 2.999928e+00 -9.970191e-05 4.969496e-08 0 3.611631e-07 -2.693383e-10 1.075309e+01 
3.141076e-02 2.999940e+00 3.000038e+00 -9.974184e-05 3.156284e-06 0 2.976677e-04 -2.693383e-10 1.075309e+01 
6.279052e-02 3.000013e+00 2.999915e+00 -9.970194e-05 -6.398848e-06 0 -5.992649e-04 -2.693383e-10 1.075309e+01 
9.410831e-02 2.999910e+00 3.000008e+00 -9.974172e-05 9.514584e-06 0 9.069555e-04 -2.693383e-10 1.075309e+01 
1.253332e-01 2.999955e+00 2.999856e+00 -9.970204e-05 -1.251733e-05 0 -1.224166e-03 -2.693383e-10 1.075309e+01 
1.564345e-01 2.999804e+00 2.999903e+00 -9.974150e-05 1.526031e-05 0 1.555253e-03 -2.693383e-10 1.075309e+01 
1.873813e-01 2.999772e+00 2.999673e+00 -9.970220e-05 -1.770722e-05 0 -1.904189e-03 -2.693383e-10 1.075309e+01 
2.181432e-01 2.999495e+00 2.999594e+00 -9.974115e-05 1.940160e-05 0 2.275449e-03 -2.693383e-10 1.075309e+01 
2.486899e-01 2.999260e+00 2.999161e+00 -9.970241e-05 -2.041308e-05 0 -2.676075e-03 -2.693383e-10 1.075309e+01 
2.789911e-01 2.998666e+00 2.998765e+00 -9.974071e-05 2.008865e-05 0 3.112865e-03 -2.693383e-10 1.075309e+01 
3.090170e-01 2.997952e+00 2.997851e+00 -9.970267e-05 -1.837304e-05 0 -3.594942e-03 -2.693383e-10 1.075309e+01 
3.387379e-01 2.996645e+00 2.996746e+00 -9.974017e-05 1.471320e-05 0 4.134661e-03 -2.693383e-10 1.075309e+01 
3.681246e-01 2.994907e+00 2.994806e+00 -9.970298e-05 -9.542223e-06 0 -4.748180e-03 -2.693383e-10 1.075309e+01 
3.971479e-01 2.992161e+00 2.992263e+00 -9.973951e-05 2.516290e-06 0 5.451979e-03 -2.693383e-10 1.075309e+01 
4.257793e-01 2.988456e+00 2.988354e+00 -9.970339e-05 5.288720e-06 0 -6.265297e-03 -2.693383e-10 1.075309e+01 
4.539905e-01 2.983086e+00 2.983189e+00 -9.973866e-05 -1.308033e-05 0 7.208142e-03 -2.693383e-10 1.075309e+01 
4.817537e-01 2.975973e+00 2.975871e+00 -9.970400e-05 1.791172e-05 0 -8.299374e-03 -2.693383e-10 1.075309e+01 
5.090414e-01 2.966284e+00 2.966385e+00 -9.973745e-05 -1.705852e-05 0 9.549493e-03 -2.693383e-10 1.075309e+01 